# vtk DataFile Version 3.0
LAPLACIEN  2D
ASCII
DATASET UNSTRUCTURED_GRID
 POINTS         391  float
  0.50371505999999999       0.50367786999999997        0.0000000000000000     
  0.29013556000000001       0.29014535000000002        0.0000000000000000     
  0.70165584999999997       0.71206597999999999        0.0000000000000000     
  0.70304188999999995       0.30176619999999998        0.0000000000000000     
  0.30920671999999999       0.71149227999999998        0.0000000000000000     
  0.79044983999999996       0.49884783999999999        0.0000000000000000     
  0.49102621000000002       0.20968644000000000        0.0000000000000000     
  0.49912957000000002       0.77208717000000004        0.0000000000000000     
  0.21724072999999999       0.48989389000000000        0.0000000000000000     
  0.83255933999999998       0.83046598000000005        0.0000000000000000     
  0.16646774000000000       0.17015694000000001        0.0000000000000000     
  0.83054514999999995       0.16736480000000001        0.0000000000000000     
  0.16953130999999999       0.83265739000000005        0.0000000000000000     
  0.42166445000000002       0.36345201999999999        0.0000000000000000     
  0.64462200999999997       0.56347807999999999        0.0000000000000000     
  0.35324633999999999       0.56311191000000005        0.0000000000000000     
  0.65456411000000003       0.84856860999999995        0.0000000000000000     
  0.35141477999999998       0.15563974000000000        0.0000000000000000     
  0.15290967000000000       0.35206625000000003        0.0000000000000000     
  0.82942241000000005       0.34936866000000000        0.0000000000000000     
  0.84390527000000004       0.64441694999999999        0.0000000000000000     
  0.63699174999999997       0.14284276000000001        0.0000000000000000     
  0.15620682999999999       0.64648446999999998        0.0000000000000000     
  0.36426062999999997       0.85756310999999996        0.0000000000000000     
  0.63489340999999999       0.40519052000000000        0.0000000000000000     
  0.52518872999999999       0.65957078000000002        0.0000000000000000     
  0.32158959999999998       0.42298103999999997        0.0000000000000000     
  0.58861710000000000       0.31711036999999997        0.0000000000000000     
  0.42078418000000001       0.69497151999999995        0.0000000000000000     
  0.48608786999999998       0.89334152000000000        0.0000000000000000     
   9.7084320000000002E-002  0.50000000000000000        0.0000000000000000     
  0.90291568000000000       0.50000000000000000        0.0000000000000000     
  0.51392453000000005       0.10668648999999999        0.0000000000000000     
  0.59792566999999996       0.73122754000000001        0.0000000000000000     
  0.74510058999999995       0.41124730999999998        0.0000000000000000     
  0.73212551999999997       0.90191560000000004        0.0000000000000000     
   9.7784830000000003E-002  0.26957329000000002        0.0000000000000000     
  0.26711221000000002        9.8671499999999995E-002   0.0000000000000000     
  0.90191560000000004       0.26787448000000003        0.0000000000000000     
  0.90118569000000004       0.73039821000000005        0.0000000000000000     
  0.73122947000000005        9.8017859999999998E-002   0.0000000000000000     
   9.8084400000000002E-002  0.73212551999999997        0.0000000000000000     
  0.26957329000000002       0.90221516999999996        0.0000000000000000     
  0.39283522999999998       0.25360379000000000        0.0000000000000000     
  0.74480864000000002       0.60495284999999999        0.0000000000000000     
  0.25505132000000003       0.60593640999999998        0.0000000000000000     
  0.52159297999999998       0.40671636000000000        0.0000000000000000     
  0.40768852000000000       0.47699891000000000        0.0000000000000000     
   9.1467049999999994E-002   9.1876959999999994E-002   0.0000000000000000     
  0.90842484999999995       0.90819225000000003        0.0000000000000000     
  0.90820104999999995        9.1566729999999999E-002   0.0000000000000000     
   9.1807449999999999E-002  0.90843574000000005        0.0000000000000000     
  0.27098960000000000       0.20527094000000001        0.0000000000000000     
  0.73457293999999995       0.79835387000000002        0.0000000000000000     
  0.79817773000000003       0.25713470999999999        0.0000000000000000     
  0.20747797000000001       0.72863946000000002        0.0000000000000000     
  0.20175195000000001       0.27583914999999998        0.0000000000000000     
  0.79603889000000005       0.72159035000000005        0.0000000000000000     
  0.71761666000000002       0.19748431999999999        0.0000000000000000     
  0.28462607000000001       0.80251899999999998        0.0000000000000000     
  0.69134598999999997       0.49261972999999998        0.0000000000000000     
  0.44720578999999999       0.58582935999999997        0.0000000000000000     
  0.24242269999999999       0.37228174000000003        0.0000000000000000     
  0.38265623999999998       0.93072131999999996        0.0000000000000000     
  0.60971754000000000       0.91988369000000003        0.0000000000000000     
   7.9163609999999995E-002  0.60979116000000000        0.0000000000000000     
  0.92010649000000000       0.61081183999999999        0.0000000000000000     
  0.61954008999999999        7.1530830000000004E-002   0.0000000000000000     
  0.91882012999999996       0.38917363999999999        0.0000000000000000     
  0.39086346000000000        8.0652249999999995E-002   0.0000000000000000     
   7.9183480000000001E-002  0.38966213000000000        0.0000000000000000     
  0.59114111999999996       0.49294315000000000        0.0000000000000000     
  0.63337980999999999       0.64485914000000000        0.0000000000000000     
  0.50012352000000004       0.29676539000000002        0.0000000000000000     
  0.82552601000000003       0.92753492000000004        0.0000000000000000     
  0.92774772999999999       0.82498556999999995        0.0000000000000000     
   7.1970870000000006E-002  0.17510291000000000        0.0000000000000000     
  0.17422821999999999        7.2635640000000001E-002   0.0000000000000000     
  0.82510813000000005        7.2134840000000006E-002   0.0000000000000000     
  0.92754665000000003       0.17446275999999999        0.0000000000000000     
  0.17501022999999999       0.92789951999999998        0.0000000000000000     
   7.2464680000000004E-002  0.82554053000000005        0.0000000000000000     
  0.30731587999999999       0.50885354999999999        0.0000000000000000     
  0.59033407999999998       0.22171178999999999        0.0000000000000000     
  0.40109191999999999       0.78725542000000004        0.0000000000000000     
  0.35420917000000002       0.63754104000000000        0.0000000000000000     
  0.15983976999999999       0.56665573000000002        0.0000000000000000     
  0.84108459999999996       0.56757886999999996        0.0000000000000000     
  0.83902096000000004       0.43344338999999998        0.0000000000000000     
  0.43230028999999998       0.16004268999999999        0.0000000000000000     
  0.57536027999999995       0.83041363999999995        0.0000000000000000     
  0.15771898000000001       0.42747892999999998        0.0000000000000000     
  0.34021692999999997       0.34221559000000001        0.0000000000000000     
  0.56002271999999997       0.57501117999999996        0.0000000000000000     
  0.65344329000000001       0.78147597999999996        0.0000000000000000     
   0.0000000000000000        0.0000000000000000        0.0000000000000000     
   1.0000000000000000        0.0000000000000000        0.0000000000000000     
   1.0000000000000000        1.0000000000000000        0.0000000000000000     
   0.0000000000000000        1.0000000000000000        0.0000000000000000     
  0.11111111000000000        0.0000000000000000        0.0000000000000000     
  0.22222222000000000        0.0000000000000000        0.0000000000000000     
  0.33333332999999998        0.0000000000000000        0.0000000000000000     
  0.44444444000000000        0.0000000000000000        0.0000000000000000     
  0.55555555999999995        0.0000000000000000        0.0000000000000000     
  0.66666667000000002        0.0000000000000000        0.0000000000000000     
  0.77777777999999997        0.0000000000000000        0.0000000000000000     
  0.88888889000000004        0.0000000000000000        0.0000000000000000     
   1.0000000000000000       0.11111111000000000        0.0000000000000000     
   1.0000000000000000       0.22222222000000000        0.0000000000000000     
   1.0000000000000000       0.33333332999999998        0.0000000000000000     
   1.0000000000000000       0.44444444000000000        0.0000000000000000     
   1.0000000000000000       0.55555555999999995        0.0000000000000000     
   1.0000000000000000       0.66666667000000002        0.0000000000000000     
   1.0000000000000000       0.77777777999999997        0.0000000000000000     
   1.0000000000000000       0.88888889000000004        0.0000000000000000     
  0.88888889000000004        1.0000000000000000        0.0000000000000000     
  0.77777777999999997        1.0000000000000000        0.0000000000000000     
  0.66666667000000002        1.0000000000000000        0.0000000000000000     
  0.55555555999999995        1.0000000000000000        0.0000000000000000     
  0.44444444000000000        1.0000000000000000        0.0000000000000000     
  0.33333332999999998        1.0000000000000000        0.0000000000000000     
  0.22222222000000000        1.0000000000000000        0.0000000000000000     
  0.11111111000000000        1.0000000000000000        0.0000000000000000     
   0.0000000000000000       0.11111111000000000        0.0000000000000000     
   0.0000000000000000       0.22222222000000000        0.0000000000000000     
[...]
 CELL_DATA         354
 SCALARS C float
 LOOKUP_TABLE default
    0.74911903863092321743E+00
    0.11429364408791262697E+01
    0.52909923233764444284E+00
    0.60543267024306557378E+00
    0.86330124411880948543E+00
    0.97526585513370855907E+00
    0.12284933706784564311E+01
    0.11048636752268112815E+01
    0.13017491433275056867E+01
    0.13350776226346372511E+01
    0.13789052776930001976E+01
    0.13718030974894366292E+01
    0.13855511585819813014E+01
    0.13898725943902328073E+01
    0.13855608943753348061E+01
    0.13875272071845898836E+01
    0.13634513820230693693E+01
    0.13320753773675861886E+01
    0.12329084293795151694E+01
    0.12789388045068033062E+01
    0.12104254960292097909E+01
    0.12462965968916048798E+01
    0.12880090380176278941E+01
    0.12649909093404234639E+01
    0.12944813828000742983E+01
    0.12892005653168814305E+01
    0.12371180502749266061E+01
    0.12735216286259241070E+01
    0.11800473359391605577E+01
    0.10786762749380751636E+01
    0.86208279106879326381E+00
    0.97380725253833388955E+00
    0.75332588104581021948E+00
    0.64361878629408431074E+00
    0.53237341602905563498E+00
    0.57592870247887417712E+00
    0.52335254994904600867E+00
    0.53103153419403392732E+00
    0.57528958330072499372E+00
    0.54198841859994595360E+00
    0.58996886017732064200E+00
    0.59309462853981376185E+00
    0.61158592086030361124E+00
    0.59827608420988065419E+00
    0.60023230617720546576E+00
    0.55864199196793817848E+00
    0.53229688416224574254E+00
    0.54316147921411372934E+00
    0.52721036169723589637E+00
    0.51762521362257574165E+00
    0.55549862365811408793E+00
    0.53745186910066200525E+00
    0.78926055936372929711E+00
    0.81214253431096306013E+00
    0.89303166242630727112E+00
    0.84599907228427762007E+00
    0.90166161615740403334E+00
    0.87277766972083015151E+00
    0.82139965563619454780E+00
    0.84736557304413695491E+00
    0.77262949314652695776E+00
    0.69443956317966415437E+00
    0.58229145165153606278E+00
    0.63829436674272077568E+00
    0.54734799532910149988E+00
    0.51619750148964560488E+00
    0.54559691955063804869E+00
    0.52748477655433756439E+00
    0.13335557398103445870E+01
    0.13825164152205871027E+01
    0.13789925391482713568E+01
    0.13696290017346250956E+01
    0.13869604923970353383E+01
    0.13821368719138309444E+01
    0.13683497424717037116E+01
    0.13305097371671803508E+01
    0.13549268053980865201E+01
    0.13857874420584932462E+01
    0.12104207898292556056E+01
    0.12755368698057403254E+01
    0.10702938460139144183E+01
    0.11519669883528707022E+01
    0.12823221032151503884E+01
    0.11168376127659009889E+01
    0.13434067228672914585E+01
    0.12757587960846707986E+01
    0.11819256988190300905E+01
    0.13281974521035166958E+01
    0.13380183391081432731E+01
    0.13168182433598518699E+01
    0.12367090731061318731E+01
    0.11198926088198153384E+01
    0.10844714904415211354E+01
    0.91952537121507338380E+00
    0.88758960600114356065E+00
    0.98600114665471505493E+00
    0.11550051116496997672E+01
    0.13356067956255743834E+01
    0.13833143848792537334E+01
    0.13577482756955303600E+01
    0.13845916556435082789E+01
    0.13382875910953835330E+01
    0.13785841102975775474E+01
    0.13266802823911956200E+01
    0.13223045644587929637E+01
    0.12537547831454665115E+01
    0.12534813424530684145E+01
    0.13286616851294363872E+01
    0.12185021111932301530E+01
    0.11471449968170013278E+01
    0.89226328125818099579E+00
    0.11376416892307890105E+01
    0.99744065249481683733E+00
    0.98142878282054346606E+00
    0.13131372697855039355E+01
    0.10974835186367826179E+01
    0.12119750299247871173E+01
    0.12994258281628470186E+01
    0.12990947536896464420E+01
    0.11239631717573572711E+01
    0.12093582084907401608E+01
    0.71065814961626527779E+00
    0.82411865017306795700E+00
    0.63180375491242313224E+00
    0.84386641604289125418E+00
    0.91207369351438538629E+00
    0.64270749282269834524E+00
    0.69536769690462929550E+00
    0.11303693134430468081E+01
    0.12549489981679906592E+01
    0.10480168747566267484E+01
    0.12798128945722619942E+01
    0.12444673079193484533E+01
    0.10526713231926518866E+01
    0.11513426321750284131E+01
    0.13701873363163388220E+01
    0.13886142314442178058E+01
    0.13299886290830773561E+01
    0.13851257275907840061E+01
    0.13740587137988935496E+01
    0.13631368634937603979E+01
    0.13438884165626840961E+01
    0.59599889025471375348E+00
    0.57165345770624820254E+00
    0.52903275487913270503E+00
    0.67844004946783931231E+00
    0.66061094244623874694E+00
    0.53258459879725073005E+00
    0.53862121102234006287E+00
    0.13738065289409020497E+01
    0.13452311816714113135E+01
    0.13166532813644531430E+01
    0.13682864967556043201E+01
    0.12841017111999599720E+01
    0.13693145665955135382E+01
    0.13606348599967477142E+01
    0.13861725893184324576E+01
    0.13828426311610382271E+01
    0.13569641717060170194E+01
    0.13879020399608728020E+01
    0.12677548506566265196E+01
    0.13658455046528281684E+01
    0.13458476672684094311E+01
    0.13332936428479864599E+01
    0.12977646077754969589E+01
    0.75784046907107960322E+00
    0.87933299623423144542E+00
    0.75562578884774334043E+00
    0.86886090864608300777E+00
    0.93682582839589612078E+00
    0.13429790778902381820E+01
    0.13817755638528517181E+01
    0.13724101081299093785E+01
    0.13817743330240672694E+01
    0.13840577993651985711E+01
    0.11354927565563019964E+01
    0.12482206971922908956E+01
    0.12812533471894895776E+01
    0.10950786280198658851E+01
    0.11920603076932014819E+01
    0.13788903314772424924E+01
    0.13729983375824577063E+01
    0.13843565839138629592E+01
    0.13596571244198938366E+01
    0.13849646096794625549E+01
    0.10522797655941960038E+01
    0.12707372076279812578E+01
    0.11426397529948442156E+01
    0.11512551423432699771E+01
    0.12540664546562316772E+01
    0.13445703136823494717E+01
    0.13681238583936212727E+01
    0.13368858731269126494E+01
    0.13621339762690611863E+01
    0.12790123074883235077E+01
    0.73604476085711834088E+00
    0.99260650059480126650E+00
    0.83611325997383034725E+00
    0.79850622097667145471E+00
    0.93562268961252570421E+00
    0.72410244086540720421E+00
    0.64134133926138914283E+00
    0.73828993845006896102E+00
    0.64835335624748069439E+00
    0.81538878751988019822E+00
    0.11951732577601312801E+01
    0.13223028841131374556E+01
    0.12749164282029763484E+01
    0.13315562669953615593E+01
    0.13210764747679035747E+01
    0.12642671733743775508E+01
    0.12600027466146208610E+01
    0.13335312457401371500E+01
    0.13192378442854308940E+01
    0.13462755368977765702E+01
    0.13867379087260314208E+01
    0.13561096599449842248E+01
    0.13570911275394463846E+01
    0.13879508146627475007E+01
    0.11864603190315869963E+01
    0.11293285657468343786E+01
    0.11237807318931787304E+01
    0.12892869696921518408E+01
    0.10771954673405192970E+01
    0.12270898325547667795E+01
    0.64069408634429481086E+00
    0.69077798329796169519E+00
    0.83753947340407042255E+00
    0.81735987543663457533E+00
    0.83225018424868724143E+00
    0.95277050475103042260E+00
    0.97610753424366414333E+00
    0.10654347448695160594E+01
    0.12224215454806754977E+01
    0.13087958169659865693E+01
    0.13044315259461023437E+01
    0.13312674232096712856E+01
    0.13751852567102009761E+01
    0.13843835326938211949E+01
    0.12943133048130226470E+01
    0.13700318371737469914E+01
    0.12801580993463181901E+01
    0.10562529312987096741E+01
    0.11126885622052264946E+01
    0.13732432819934194956E+01
    0.13832512942772952069E+01
    0.79588296579154360622E+00
    0.66516710869430029085E+00
    0.61300490291232334616E+00
    0.11972758574114301666E+01
    0.10103615600173780908E+01
    0.99024133909893674588E+00
    0.13242581007593823283E+01
    0.13413732402243601083E+01
    0.12192258731388689874E+01
    0.13756847148030395545E+01
    0.13389439019211513138E+01
    0.13280003811531728708E+01
    0.98247998397406299809E+00
    0.10064404080001547737E+01
    0.75101683903760307892E+00
    0.13714755368608477770E+01
    0.13900866085906189440E+01
    0.13709809318113821419E+01
    0.70137767469479228577E+00
    0.67689147512901448600E+00
    0.55182448010446238928E+00
    0.65176370231405988953E+00
    0.57674199154832328507E+00
    0.53052451147646373375E+00
    0.13751253633000435350E+01
    0.12911936647827009228E+01
    0.13641100626256226214E+01
    0.13757940844602019048E+01
    0.12387993824736645010E+01
    0.13665027526698263483E+01
    0.13284418609540915579E+01
    0.13161100368530684879E+01
    0.97449952528138428232E+00
    0.12688059501826642883E+01
    0.12153784727663199394E+01
    0.10834325424523461034E+01
    0.13402583171667739048E+01
    0.13207817650918440844E+01
    0.12405440070148312515E+01
    0.13796871042202336621E+01
    0.13683107592382801609E+01
    0.92233624425359661547E+00
    0.10085655463341129945E+01
    0.56045371397155785420E+00
    0.59476357289896442104E+00
    0.13101987113321822420E+01
    0.13009969404807439908E+01
    0.51686496544427473765E+00
    0.51665050737387996360E+00
    0.13177484196853508358E+01
    0.10021787142857052633E+01
    0.99341280914592910989E+00
    0.13644114527905049084E+01
    0.77822134164543399493E+00
    0.13112880883222863826E+01
    0.12827056732419992446E+01
    0.85455160317264156067E+00
    0.13713404837664704417E+01
    0.13031801628005330596E+01
    0.13745150788692543919E+01
    0.12794120055333770836E+01
    0.13670136101433303377E+01
    0.78243420317660627994E+00
    0.87678289162051858963E+00
    0.12384300177075999727E+01
    0.13506983964340095739E+01
    0.13836189440553201546E+01
    0.10745423916411134257E+01
    0.13837913129540200252E+01
    0.13559359186481894088E+01
    0.11829731778405623288E+01
    0.98244324674284477794E+00
    0.72819262649909588525E+00
    0.66425871951853487918E+00
    0.11007811163689338319E+01
    0.10625084676644727111E+01
    0.52843174356722011353E+00
    0.52636382872581188863E+00
    0.64296355217662615189E+00
    0.63171323872631601759E+00
    0.97811438851077903145E+00
    0.12223879334358045412E+01
    0.13470879957416501682E+01
    0.14097429136714656472E+01
    0.14177603070688054032E+01
    0.13840269714044775018E+01
    0.12788104489122651408E+01
    0.11869607946378923913E+01
    0.12324836166008434901E+01
    0.12197766263388125640E+01
    0.11209841360979637681E+01
    0.94500187284158287948E+00
    0.74267084866613153338E+00
    0.57696823368014471534E+00
    0.51516747267563356427E+00
    0.53077818216343031210E+00
    0.54097601438115450190E+00
    0.54023795905971949693E+00
    0.52105211192147737886E+00
    0.51576777219416369835E+00
    0.54810960046640444521E+00
    0.73831079895396478641E+00
    0.78271235719739717940E+00
    0.76130058578528192470E+00
    0.69828811395987400168E+00
    0.60376395229222290517E+00
    0.53321719036033221606E+00
    0.53136092268348855683E+00
