# vtk DataFile Version 3.0
LAPLACIEN  2D
ASCII
DATASET UNSTRUCTURED_GRID
 POINTS         391  float
  0.50371505999999999       0.50367786999999997        0.0000000000000000     
  0.29013556000000001       0.29014535000000002        0.0000000000000000     
  0.70165584999999997       0.71206597999999999        0.0000000000000000     
  0.70304188999999995       0.30176619999999998        0.0000000000000000     
  0.30920671999999999       0.71149227999999998        0.0000000000000000     
  0.79044983999999996       0.49884783999999999        0.0000000000000000     
  0.49102621000000002       0.20968644000000000        0.0000000000000000     
  0.49912957000000002       0.77208717000000004        0.0000000000000000     
  0.21724072999999999       0.48989389000000000        0.0000000000000000     
  0.83255933999999998       0.83046598000000005        0.0000000000000000     
  0.16646774000000000       0.17015694000000001        0.0000000000000000     
  0.83054514999999995       0.16736480000000001        0.0000000000000000     
  0.16953130999999999       0.83265739000000005        0.0000000000000000     
  0.42166445000000002       0.36345201999999999        0.0000000000000000     
  0.64462200999999997       0.56347807999999999        0.0000000000000000     
  0.35324633999999999       0.56311191000000005        0.0000000000000000     
  0.65456411000000003       0.84856860999999995        0.0000000000000000     
  0.35141477999999998       0.15563974000000000        0.0000000000000000     
  0.15290967000000000       0.35206625000000003        0.0000000000000000     
  0.82942241000000005       0.34936866000000000        0.0000000000000000     
  0.84390527000000004       0.64441694999999999        0.0000000000000000     
  0.63699174999999997       0.14284276000000001        0.0000000000000000     
  0.15620682999999999       0.64648446999999998        0.0000000000000000     
  0.36426062999999997       0.85756310999999996        0.0000000000000000     
  0.63489340999999999       0.40519052000000000        0.0000000000000000     
  0.52518872999999999       0.65957078000000002        0.0000000000000000     
  0.32158959999999998       0.42298103999999997        0.0000000000000000     
  0.58861710000000000       0.31711036999999997        0.0000000000000000     
  0.42078418000000001       0.69497151999999995        0.0000000000000000     
  0.48608786999999998       0.89334152000000000        0.0000000000000000     
   9.7084320000000002E-002  0.50000000000000000        0.0000000000000000     
  0.90291568000000000       0.50000000000000000        0.0000000000000000     
  0.51392453000000005       0.10668648999999999        0.0000000000000000     
  0.59792566999999996       0.73122754000000001        0.0000000000000000     
  0.74510058999999995       0.41124730999999998        0.0000000000000000     
  0.73212551999999997       0.90191560000000004        0.0000000000000000     
   9.7784830000000003E-002  0.26957329000000002        0.0000000000000000     
  0.26711221000000002        9.8671499999999995E-002   0.0000000000000000     
  0.90191560000000004       0.26787448000000003        0.0000000000000000     
  0.90118569000000004       0.73039821000000005        0.0000000000000000     
  0.73122947000000005        9.8017859999999998E-002   0.0000000000000000     
   9.8084400000000002E-002  0.73212551999999997        0.0000000000000000     
  0.26957329000000002       0.90221516999999996        0.0000000000000000     
  0.39283522999999998       0.25360379000000000        0.0000000000000000     
  0.74480864000000002       0.60495284999999999        0.0000000000000000     
  0.25505132000000003       0.60593640999999998        0.0000000000000000     
  0.52159297999999998       0.40671636000000000        0.0000000000000000     
  0.40768852000000000       0.47699891000000000        0.0000000000000000     
   9.1467049999999994E-002   9.1876959999999994E-002   0.0000000000000000     
  0.90842484999999995       0.90819225000000003        0.0000000000000000     
  0.90820104999999995        9.1566729999999999E-002   0.0000000000000000     
   9.1807449999999999E-002  0.90843574000000005        0.0000000000000000     
  0.27098960000000000       0.20527094000000001        0.0000000000000000     
  0.73457293999999995       0.79835387000000002        0.0000000000000000     
  0.79817773000000003       0.25713470999999999        0.0000000000000000     
  0.20747797000000001       0.72863946000000002        0.0000000000000000     
  0.20175195000000001       0.27583914999999998        0.0000000000000000     
  0.79603889000000005       0.72159035000000005        0.0000000000000000     
  0.71761666000000002       0.19748431999999999        0.0000000000000000     
  0.28462607000000001       0.80251899999999998        0.0000000000000000     
  0.69134598999999997       0.49261972999999998        0.0000000000000000     
  0.44720578999999999       0.58582935999999997        0.0000000000000000     
  0.24242269999999999       0.37228174000000003        0.0000000000000000     
  0.38265623999999998       0.93072131999999996        0.0000000000000000     
  0.60971754000000000       0.91988369000000003        0.0000000000000000     
   7.9163609999999995E-002  0.60979116000000000        0.0000000000000000     
  0.92010649000000000       0.61081183999999999        0.0000000000000000     
  0.61954008999999999        7.1530830000000004E-002   0.0000000000000000     
  0.91882012999999996       0.38917363999999999        0.0000000000000000     
  0.39086346000000000        8.0652249999999995E-002   0.0000000000000000     
   7.9183480000000001E-002  0.38966213000000000        0.0000000000000000     
  0.59114111999999996       0.49294315000000000        0.0000000000000000     
  0.63337980999999999       0.64485914000000000        0.0000000000000000     
  0.50012352000000004       0.29676539000000002        0.0000000000000000     
  0.82552601000000003       0.92753492000000004        0.0000000000000000     
  0.92774772999999999       0.82498556999999995        0.0000000000000000     
   7.1970870000000006E-002  0.17510291000000000        0.0000000000000000     
  0.17422821999999999        7.2635640000000001E-002   0.0000000000000000     
  0.82510813000000005        7.2134840000000006E-002   0.0000000000000000     
  0.92754665000000003       0.17446275999999999        0.0000000000000000     
  0.17501022999999999       0.92789951999999998        0.0000000000000000     
   7.2464680000000004E-002  0.82554053000000005        0.0000000000000000     
  0.30731587999999999       0.50885354999999999        0.0000000000000000     
  0.59033407999999998       0.22171178999999999        0.0000000000000000     
  0.40109191999999999       0.78725542000000004        0.0000000000000000     
  0.35420917000000002       0.63754104000000000        0.0000000000000000     
  0.15983976999999999       0.56665573000000002        0.0000000000000000     
  0.84108459999999996       0.56757886999999996        0.0000000000000000     
  0.83902096000000004       0.43344338999999998        0.0000000000000000     
  0.43230028999999998       0.16004268999999999        0.0000000000000000     
  0.57536027999999995       0.83041363999999995        0.0000000000000000     
  0.15771898000000001       0.42747892999999998        0.0000000000000000     
  0.34021692999999997       0.34221559000000001        0.0000000000000000     
  0.56002271999999997       0.57501117999999996        0.0000000000000000     
  0.65344329000000001       0.78147597999999996        0.0000000000000000     
   0.0000000000000000        0.0000000000000000        0.0000000000000000     
   1.0000000000000000        0.0000000000000000        0.0000000000000000     
   1.0000000000000000        1.0000000000000000        0.0000000000000000     
   0.0000000000000000        1.0000000000000000        0.0000000000000000     
  0.11111111000000000        0.0000000000000000        0.0000000000000000     
  0.22222222000000000        0.0000000000000000        0.0000000000000000     
  0.33333332999999998        0.0000000000000000        0.0000000000000000     
  0.44444444000000000        0.0000000000000000        0.0000000000000000     
  0.55555555999999995        0.0000000000000000        0.0000000000000000     
  0.66666667000000002        0.0000000000000000        0.0000000000000000     
  0.77777777999999997        0.0000000000000000        0.0000000000000000     
  0.88888889000000004        0.0000000000000000        0.0000000000000000     
   1.0000000000000000       0.11111111000000000        0.0000000000000000     
   1.0000000000000000       0.22222222000000000        0.0000000000000000     
   1.0000000000000000       0.33333332999999998        0.0000000000000000     
   1.0000000000000000       0.44444444000000000        0.0000000000000000     
   1.0000000000000000       0.55555555999999995        0.0000000000000000     
   1.0000000000000000       0.66666667000000002        0.0000000000000000     
   1.0000000000000000       0.77777777999999997        0.0000000000000000     
   1.0000000000000000       0.88888889000000004        0.0000000000000000     
  0.88888889000000004        1.0000000000000000        0.0000000000000000     
  0.77777777999999997        1.0000000000000000        0.0000000000000000     
  0.66666667000000002        1.0000000000000000        0.0000000000000000     
  0.55555555999999995        1.0000000000000000        0.0000000000000000     
  0.44444444000000000        1.0000000000000000        0.0000000000000000     
  0.33333332999999998        1.0000000000000000        0.0000000000000000     
  0.22222222000000000        1.0000000000000000        0.0000000000000000     
  0.11111111000000000        1.0000000000000000        0.0000000000000000     
   0.0000000000000000       0.11111111000000000        0.0000000000000000     
   0.0000000000000000       0.22222222000000000        0.0000000000000000     
[...]
 CELL_DATA         354
 SCALARS C float
 LOOKUP_TABLE default
    0.75500815644217833533E+00
    0.11429108739493598623E+01
    0.53614380205418521452E+00
    0.61014971604794587812E+00
    0.86756560675462623955E+00
    0.97786976708476802678E+00
    0.12239587700962140104E+01
    0.11057348626394056801E+01
    0.12713864854576084618E+01
    0.12774002566743936082E+01
    0.12916237602560047826E+01
    0.12977292155717574662E+01
    0.12968978643282307317E+01
    0.13016027906145903881E+01
    0.13021580432170198893E+01
    0.13007226460708480875E+01
    0.12869494142292263739E+01
    0.12806956434972860404E+01
    0.12198933073174540453E+01
    0.12510794479643794208E+01
    0.12070972419347163473E+01
    0.12416908539468942685E+01
    0.12644225735072427419E+01
    0.12498625076208158546E+01
    0.12663929335849983815E+01
    0.12668861496097181263E+01
    0.12279939424522727798E+01
    0.12610374402219233225E+01
    0.11795002878858102946E+01
    0.10804634351841682083E+01
    0.86685561052557935646E+00
    0.97697721378936708270E+00
    0.75910937717655313506E+00
    0.65056849634864155618E+00
    0.53992258033918272275E+00
    0.58328066647938503486E+00
    0.53072793858007627499E+00
    0.53854018486587751369E+00
    0.58272070992220970087E+00
    0.54960448396299144136E+00
    0.59746402060132619560E+00
    0.60053987343419368283E+00
    0.61891192688268181765E+00
    0.60570370432354869727E+00
    0.60753345757051491205E+00
    0.56631085055199614775E+00
    0.53996733388283102428E+00
    0.55086156342310277356E+00
    0.53460755166348927769E+00
    0.52469092522314553229E+00
    0.56139897853018339013E+00
    0.54396371774668605958E+00
    0.79477288956595260050E+00
    0.81746708813907220659E+00
    0.89744386016668142858E+00
    0.85107455564723721864E+00
    0.90611593880262486511E+00
    0.87756049605208297226E+00
    0.82669530530773160937E+00
    0.85234168338711924218E+00
    0.77834147261233588289E+00
    0.70104261488012387105E+00
    0.58987833507176956616E+00
    0.64533702644422674677E+00
    0.55489238463406587165E+00
    0.52365323716942546728E+00
    0.55190471939404872614E+00
    0.53440275554505523026E+00
    0.12622282371426312153E+01
    0.12980710504067789479E+01
    0.12883689992269924396E+01
    0.12911654435341706204E+01
    0.12963149306810919370E+01
    0.12906433925557694309E+01
    0.12898236747824012305E+01
    0.12683240331257021882E+01
    0.12829529042312080023E+01
    0.12974249814633342925E+01
    0.12044987465793808301E+01
    0.12560044024993977096E+01
    0.10699174317619162267E+01
    0.11487382656164135675E+01
    0.12605742046377637067E+01
    0.11161369191924643829E+01
    0.12669056812461128025E+01
    0.12517350811818648282E+01
    0.11768117834789484366E+01
    0.12710456056958303606E+01
    0.12677757776565736769E+01
    0.12763866392631186830E+01
    0.12245734188902543949E+01
    0.11174446512117375274E+01
    0.10838969448315307620E+01
    0.92225492383142482211E+00
    0.89096262680068971651E+00
    0.98790761576795038668E+00
    0.11513244316516799692E+01
    0.12724902626209264600E+01
    0.12917624112567569483E+01
    0.12846798278347490996E+01
    0.12957609730740329290E+01
    0.12794561205369279211E+01
    0.12976373772693863273E+01
    0.12746831385993806496E+01
    0.12722020281447536938E+01
    0.12315936605689432604E+01
    0.12305059150074197927E+01
    0.12650688674796870536E+01
    0.12120234408950176785E+01
    0.11437916512934460656E+01
    0.89516446756750256419E+00
    0.11354765874007537452E+01
    0.99877740484663879439E+00
    0.98302301345034326374E+00
    0.12636133392866877312E+01
    0.10965771253803511254E+01
    0.12024187097931384738E+01
    0.12663400277585823428E+01
    0.12633991181854722363E+01
    0.11235512911187430785E+01
    0.11983478420821920274E+01
    0.71675142845227024502E+00
    0.82873803943472645894E+00
    0.63858583088462750332E+00
    0.84782980294410115185E+00
    0.91501071000127665034E+00
    0.64954220274865337448E+00
    0.70162940784751515189E+00
    0.11293979432627236914E+01
    0.12360259622001310564E+01
    0.10490837595442952246E+01
    0.12477233230704223299E+01
    0.12264877769843609556E+01
    0.10541296981262198162E+01
    0.11489028267997469790E+01
    0.12906502595983244674E+01
    0.13005097765612050331E+01
    0.12723699902481635515E+01
    0.12969001283794812096E+01
    0.12852220255282573724E+01
    0.12904616637246044686E+01
    0.12804098742720604331E+01
    0.60333513160876395265E+00
    0.57921581115557874142E+00
    0.53649507751326264149E+00
    0.68470583597990863911E+00
    0.66715536839676614633E+00
    0.54024038335461743721E+00
    0.54629795894879007445E+00
    0.12840213541833371824E+01
    0.12841981921019480772E+01
    0.12711058403609774015E+01
    0.12903106233291228300E+01
    0.12518397763465731742E+01
    0.12845122114770513022E+01
    0.12823773737969110798E+01
    0.12968214367020682865E+01
    0.12922187458576124275E+01
    0.12813134107521269023E+01
    0.12992490838836230349E+01
    0.12484042640739456687E+01
    0.12859328271772638708E+01
    0.12836250131734474600E+01
    0.12851918180666190850E+01
    0.12652013090316529542E+01
    0.76291075117045914489E+00
    0.88228530791026316127E+00
    0.76062784989042753203E+00
    0.87228322552644377286E+00
    0.93907849096596640592E+00
    0.12712378784979176949E+01
    0.12925892105089165085E+01
    0.12909251269598107648E+01
    0.12991737417545867750E+01
    0.12941315245142797075E+01
    0.11337431824504773381E+01
    0.12338385309251509447E+01
    0.12646810395982526209E+01
    0.10946521791351908615E+01
    0.11870420251591813354E+01
    0.12960870459162883161E+01
    0.12891452097101492313E+01
    0.12976574518626196042E+01
    0.12793642138191183566E+01
    0.12970241801014541494E+01
    0.10521429913465536465E+01
    0.12561358221102487676E+01
    0.11401196958578290186E+01
    0.11482543431464609096E+01
    0.12398854244855117557E+01
    0.12831143226634851295E+01
    0.12858675862252013644E+01
    0.12821219695335515087E+01
    0.12815704102993048519E+01
    0.12391397411454949662E+01
    0.74136618084479588564E+00
    0.99436281577691998379E+00
    0.84033172588614646337E+00
    0.80286971763930670143E+00
    0.93815379887083949484E+00
    0.73027933561826130493E+00
    0.64799780227886061290E+00
    0.74396733414269533569E+00
    0.65517846115572941912E+00
    0.82031290048597504949E+00
    0.11889386394022312121E+01
    0.12683869227130410984E+01
    0.12500848040057657151E+01
    0.12633065301987385087E+01
    0.12657559122378896355E+01
    0.12422651571127216741E+01
    0.12440885574634972244E+01
    0.12772816930056096751E+01
    0.12739394577464473457E+01
    0.12766491134125526052E+01
    0.13010576594331313416E+01
    0.12902769242903315838E+01
    0.12885969858801797905E+01
    0.12995227744270456682E+01
    0.11807054950426576490E+01
    0.11262206681457460622E+01
    0.11207324394096884745E+01
    0.12558031695829932062E+01
    0.10772222535696385215E+01
    0.12100206830605682029E+01
    0.64763816644022953462E+00
    0.69712092788182666858E+00
    0.84181709845831986794E+00
    0.82172109268630955103E+00
    0.83665211537407746523E+00
    0.95563232197895142672E+00
    0.97826454436023757566E+00
    0.10651444596797596809E+01
    0.12164209819349465214E+01
    0.12722232467540659506E+01
    0.12701288018692751258E+01
    0.12698716659167685883E+01
    0.12941740276096032058E+01
    0.12967373142988929402E+01
    0.12512163258385466946E+01
    0.12930022308798008179E+01
    0.12610606808361468634E+01
    0.10564359299564394234E+01
    0.11120905548939472585E+01
    0.12937996848959714136E+01
    0.12915176640797572105E+01
    0.80048593318564276178E+00
    0.67167524744812834303E+00
    0.62014768581656143365E+00
    0.11927005057552160228E+01
    0.10125621648981477652E+01
    0.99297847498132085775E+00
    0.12720307558738512821E+01
    0.12781731435611360936E+01
    0.12151079371096029647E+01
    0.12857911610419829884E+01
    0.12816564766853293378E+01
    0.12776442821189413213E+01
    0.98411571854138013560E+00
    0.10078243894266354364E+01
    0.75664426308690146961E+00
    0.12881502168691452148E+01
    0.13021760773964445868E+01
    0.12915876632318630257E+01
    0.70731708493134726190E+00
    0.68316359130482584572E+00
    0.55939768692420022145E+00
    0.65834343127381089733E+00
    0.58414241298257241208E+00
    0.53818703268599810130E+00
    0.12839647799124227490E+01
    0.12519276322538608337E+01
    0.12890064883463672185E+01
    0.12914841372005403386E+01
    0.12321235438427604603E+01
    0.12784732873811393006E+01
    0.12787355315886894669E+01
    0.12748622712958517234E+01
    0.97651803238129830653E+00
    0.12508669690355123105E+01
    0.12034957118824618494E+01
    0.10837021929370858064E+01
    0.12684330775185732598E+01
    0.12674589759093932706E+01
    0.12267600587329536843E+01
    0.12938697004859043282E+01
    0.12873060592195844087E+01
    0.92579760288189583139E+00
    0.10102786215418737559E+01
    0.56791950112578271082E+00
    0.60191366718716399209E+00
    0.12674604678321483853E+01
    0.12694937370833463408E+01
    0.52419828581534388956E+00
    0.52407080152349228008E+00
    0.12686666181638692752E+01
    0.10032280041986232355E+01
    0.99439100382981637782E+00
    0.12896027559866991563E+01
    0.78315602592062849574E+00
    0.12698946763303227137E+01
    0.12577850925756148825E+01
    0.85880180190310784205E+00
    0.12919355892943835684E+01
    0.12664517362016085578E+01
    0.12915380057534473490E+01
    0.12644857808002996080E+01
    0.12824297557875250497E+01
    0.78718350399812120344E+00
    0.88013372500209219318E+00
    0.12301766262877786851E+01
    0.12810810764553739460E+01
    0.12932528154794384889E+01
    0.10744348321387839906E+01
    0.12923819480934617410E+01
    0.12818653910961730347E+01
    0.11775430111118778687E+01
    0.98400760774196660563E+00
    0.73417264892883238314E+00
    0.67129503747421315207E+00
    0.11018729588426587895E+01
    0.10649578291890757775E+01
    0.53538510367361802356E+00
    0.53309038068183312031E+00
    0.64680593423831989064E+00
    0.63598856014998306208E+00
    0.98092980868082324530E+00
    0.12186220856540308510E+01
    0.13139254899720282932E+01
    0.13613175463232547457E+01
    0.13696775347358112196E+01
    0.13406690009895056992E+01
    0.12625110412573727903E+01
    0.11870939469201722272E+01
    0.12244443978483254831E+01
    0.12174255168639711577E+01
    0.11226362071039854840E+01
    0.94907947270739989598E+00
    0.74887267316571426434E+00
    0.58431886810439614965E+00
    0.52267029156171285198E+00
    0.53860497269624907357E+00
    0.54886121039807844735E+00
    0.54810670676571460191E+00
    0.52879130924082062837E+00
    0.52305367400117330767E+00
    0.55411509569297101585E+00
    0.74476832393701131174E+00
    0.78885211946642530556E+00
    0.76765647914764789661E+00
    0.70515390399225363893E+00
    0.61129565816348307994E+00
    0.54090986457832213041E+00
    0.53800670516295923118E+00
