# vtk DataFile Version 3.0
LAPLACIEN  2D
ASCII
DATASET UNSTRUCTURED_GRID
 POINTS         391  float
  0.50371505999999999       0.50367786999999997        0.0000000000000000     
  0.29013556000000001       0.29014535000000002        0.0000000000000000     
  0.70165584999999997       0.71206597999999999        0.0000000000000000     
  0.70304188999999995       0.30176619999999998        0.0000000000000000     
  0.30920671999999999       0.71149227999999998        0.0000000000000000     
  0.79044983999999996       0.49884783999999999        0.0000000000000000     
  0.49102621000000002       0.20968644000000000        0.0000000000000000     
  0.49912957000000002       0.77208717000000004        0.0000000000000000     
  0.21724072999999999       0.48989389000000000        0.0000000000000000     
  0.83255933999999998       0.83046598000000005        0.0000000000000000     
  0.16646774000000000       0.17015694000000001        0.0000000000000000     
  0.83054514999999995       0.16736480000000001        0.0000000000000000     
  0.16953130999999999       0.83265739000000005        0.0000000000000000     
  0.42166445000000002       0.36345201999999999        0.0000000000000000     
  0.64462200999999997       0.56347807999999999        0.0000000000000000     
  0.35324633999999999       0.56311191000000005        0.0000000000000000     
  0.65456411000000003       0.84856860999999995        0.0000000000000000     
  0.35141477999999998       0.15563974000000000        0.0000000000000000     
  0.15290967000000000       0.35206625000000003        0.0000000000000000     
  0.82942241000000005       0.34936866000000000        0.0000000000000000     
  0.84390527000000004       0.64441694999999999        0.0000000000000000     
  0.63699174999999997       0.14284276000000001        0.0000000000000000     
  0.15620682999999999       0.64648446999999998        0.0000000000000000     
  0.36426062999999997       0.85756310999999996        0.0000000000000000     
  0.63489340999999999       0.40519052000000000        0.0000000000000000     
  0.52518872999999999       0.65957078000000002        0.0000000000000000     
  0.32158959999999998       0.42298103999999997        0.0000000000000000     
  0.58861710000000000       0.31711036999999997        0.0000000000000000     
  0.42078418000000001       0.69497151999999995        0.0000000000000000     
  0.48608786999999998       0.89334152000000000        0.0000000000000000     
   9.7084320000000002E-002  0.50000000000000000        0.0000000000000000     
  0.90291568000000000       0.50000000000000000        0.0000000000000000     
  0.51392453000000005       0.10668648999999999        0.0000000000000000     
  0.59792566999999996       0.73122754000000001        0.0000000000000000     
  0.74510058999999995       0.41124730999999998        0.0000000000000000     
  0.73212551999999997       0.90191560000000004        0.0000000000000000     
   9.7784830000000003E-002  0.26957329000000002        0.0000000000000000     
  0.26711221000000002        9.8671499999999995E-002   0.0000000000000000     
  0.90191560000000004       0.26787448000000003        0.0000000000000000     
  0.90118569000000004       0.73039821000000005        0.0000000000000000     
  0.73122947000000005        9.8017859999999998E-002   0.0000000000000000     
   9.8084400000000002E-002  0.73212551999999997        0.0000000000000000     
  0.26957329000000002       0.90221516999999996        0.0000000000000000     
  0.39283522999999998       0.25360379000000000        0.0000000000000000     
  0.74480864000000002       0.60495284999999999        0.0000000000000000     
  0.25505132000000003       0.60593640999999998        0.0000000000000000     
  0.52159297999999998       0.40671636000000000        0.0000000000000000     
  0.40768852000000000       0.47699891000000000        0.0000000000000000     
   9.1467049999999994E-002   9.1876959999999994E-002   0.0000000000000000     
  0.90842484999999995       0.90819225000000003        0.0000000000000000     
  0.90820104999999995        9.1566729999999999E-002   0.0000000000000000     
   9.1807449999999999E-002  0.90843574000000005        0.0000000000000000     
  0.27098960000000000       0.20527094000000001        0.0000000000000000     
  0.73457293999999995       0.79835387000000002        0.0000000000000000     
  0.79817773000000003       0.25713470999999999        0.0000000000000000     
  0.20747797000000001       0.72863946000000002        0.0000000000000000     
  0.20175195000000001       0.27583914999999998        0.0000000000000000     
  0.79603889000000005       0.72159035000000005        0.0000000000000000     
  0.71761666000000002       0.19748431999999999        0.0000000000000000     
  0.28462607000000001       0.80251899999999998        0.0000000000000000     
  0.69134598999999997       0.49261972999999998        0.0000000000000000     
  0.44720578999999999       0.58582935999999997        0.0000000000000000     
  0.24242269999999999       0.37228174000000003        0.0000000000000000     
  0.38265623999999998       0.93072131999999996        0.0000000000000000     
  0.60971754000000000       0.91988369000000003        0.0000000000000000     
   7.9163609999999995E-002  0.60979116000000000        0.0000000000000000     
  0.92010649000000000       0.61081183999999999        0.0000000000000000     
  0.61954008999999999        7.1530830000000004E-002   0.0000000000000000     
  0.91882012999999996       0.38917363999999999        0.0000000000000000     
  0.39086346000000000        8.0652249999999995E-002   0.0000000000000000     
   7.9183480000000001E-002  0.38966213000000000        0.0000000000000000     
  0.59114111999999996       0.49294315000000000        0.0000000000000000     
  0.63337980999999999       0.64485914000000000        0.0000000000000000     
  0.50012352000000004       0.29676539000000002        0.0000000000000000     
  0.82552601000000003       0.92753492000000004        0.0000000000000000     
  0.92774772999999999       0.82498556999999995        0.0000000000000000     
   7.1970870000000006E-002  0.17510291000000000        0.0000000000000000     
  0.17422821999999999        7.2635640000000001E-002   0.0000000000000000     
  0.82510813000000005        7.2134840000000006E-002   0.0000000000000000     
  0.92754665000000003       0.17446275999999999        0.0000000000000000     
  0.17501022999999999       0.92789951999999998        0.0000000000000000     
   7.2464680000000004E-002  0.82554053000000005        0.0000000000000000     
  0.30731587999999999       0.50885354999999999        0.0000000000000000     
  0.59033407999999998       0.22171178999999999        0.0000000000000000     
  0.40109191999999999       0.78725542000000004        0.0000000000000000     
  0.35420917000000002       0.63754104000000000        0.0000000000000000     
  0.15983976999999999       0.56665573000000002        0.0000000000000000     
  0.84108459999999996       0.56757886999999996        0.0000000000000000     
  0.83902096000000004       0.43344338999999998        0.0000000000000000     
  0.43230028999999998       0.16004268999999999        0.0000000000000000     
  0.57536027999999995       0.83041363999999995        0.0000000000000000     
  0.15771898000000001       0.42747892999999998        0.0000000000000000     
  0.34021692999999997       0.34221559000000001        0.0000000000000000     
  0.56002271999999997       0.57501117999999996        0.0000000000000000     
  0.65344329000000001       0.78147597999999996        0.0000000000000000     
   0.0000000000000000        0.0000000000000000        0.0000000000000000     
   1.0000000000000000        0.0000000000000000        0.0000000000000000     
   1.0000000000000000        1.0000000000000000        0.0000000000000000     
   0.0000000000000000        1.0000000000000000        0.0000000000000000     
  0.11111111000000000        0.0000000000000000        0.0000000000000000     
  0.22222222000000000        0.0000000000000000        0.0000000000000000     
  0.33333332999999998        0.0000000000000000        0.0000000000000000     
  0.44444444000000000        0.0000000000000000        0.0000000000000000     
  0.55555555999999995        0.0000000000000000        0.0000000000000000     
  0.66666667000000002        0.0000000000000000        0.0000000000000000     
  0.77777777999999997        0.0000000000000000        0.0000000000000000     
  0.88888889000000004        0.0000000000000000        0.0000000000000000     
   1.0000000000000000       0.11111111000000000        0.0000000000000000     
   1.0000000000000000       0.22222222000000000        0.0000000000000000     
   1.0000000000000000       0.33333332999999998        0.0000000000000000     
   1.0000000000000000       0.44444444000000000        0.0000000000000000     
   1.0000000000000000       0.55555555999999995        0.0000000000000000     
   1.0000000000000000       0.66666667000000002        0.0000000000000000     
   1.0000000000000000       0.77777777999999997        0.0000000000000000     
   1.0000000000000000       0.88888889000000004        0.0000000000000000     
  0.88888889000000004        1.0000000000000000        0.0000000000000000     
  0.77777777999999997        1.0000000000000000        0.0000000000000000     
  0.66666667000000002        1.0000000000000000        0.0000000000000000     
  0.55555555999999995        1.0000000000000000        0.0000000000000000     
  0.44444444000000000        1.0000000000000000        0.0000000000000000     
  0.33333332999999998        1.0000000000000000        0.0000000000000000     
  0.22222222000000000        1.0000000000000000        0.0000000000000000     
  0.11111111000000000        1.0000000000000000        0.0000000000000000     
   0.0000000000000000       0.11111111000000000        0.0000000000000000     
   0.0000000000000000       0.22222222000000000        0.0000000000000000     
[...]
 CELL_DATA         354
 SCALARS C float
 LOOKUP_TABLE default
    0.75812866952504576190E+00
    0.11432852939030075934E+01
    0.53975884401083118469E+00
    0.61260935809114269723E+00
    0.87001902944042863730E+00
    0.97956826323787793420E+00
    0.12191476707298003479E+01
    0.11066177312123128829E+01
    0.12578192081052363971E+01
    0.12572311490442937831E+01
    0.12597501890887441434E+01
    0.12712375234409254432E+01
    0.12650180364643202058E+01
    0.12697419910567784296E+01
    0.12719899572521240483E+01
    0.12690516003208616169E+01
    0.12594120119262397495E+01
    0.12623559933469570282E+01
    0.12137255484234197311E+01
    0.12389877900938104371E+01
    0.12038988184445089669E+01
    0.12373306025129833241E+01
    0.12541487807848512581E+01
    0.12440676377353878657E+01
    0.12543114684345930687E+01
    0.12564882114269411151E+01
    0.12225440369165574417E+01
    0.12519390692231575635E+01
    0.11796219985821339016E+01
    0.10817254848642279264E+01
    0.86945463735160077867E+00
    0.97885746174196319735E+00
    0.76217755426773547978E+00
    0.65418294382681174692E+00
    0.54379478385637314286E+00
    0.58707112621563783961E+00
    0.53451102547149398347E+00
    0.54239077224052911763E+00
    0.58654626061863179842E+00
    0.55351605362273947897E+00
    0.60130847494783234986E+00
    0.60436423920436466162E+00
    0.62267733831778604436E+00
    0.60952007717264911069E+00
    0.61129890757881943930E+00
    0.57024807245845876569E+00
    0.54388971182436851581E+00
    0.55479940374310188211E+00
    0.53839787552229689815E+00
    0.52831007545147712356E+00
    0.56443371119283658466E+00
    0.54730169723351140831E+00
    0.79773515264927730151E+00
    0.82035238045732272738E+00
    0.89989005949604583545E+00
    0.85383075082717974080E+00
    0.90854697543744900035E+00
    0.88014967302366609037E+00
    0.82953075678941057269E+00
    0.85503681572290002322E+00
    0.78137099783359431626E+00
    0.70448738949479094984E+00
    0.59376455072982159411E+00
    0.64897940406425880244E+00
    0.55875675728878482218E+00
    0.52747049400709355993E+00
    0.55514530334562051106E+00
    0.53794468178739707209E+00
    0.12390282625990431953E+01
    0.12691807681643267891E+01
    0.12565914520013585776E+01
    0.12640175443453227633E+01
    0.12639552712215911257E+01
    0.12576002928813729831E+01
    0.12630760650998320571E+01
    0.12495090321330737382E+01
    0.12596678308976765326E+01
    0.12667054686587575496E+01
    0.12002383264913623062E+01
    0.12465919953666424469E+01
    0.10702743505635539112E+01
    0.11465313144551141367E+01
    0.12494546500162049263E+01
    0.11162303038233518659E+01
    0.12412180970547530556E+01
    0.12399838203615154431E+01
    0.11742479401064573885E+01
    0.12486490017497087202E+01
    0.12434482324146109988E+01
    0.12590066187699309186E+01
    0.12174662457119387327E+01
    0.11167367511550092551E+01
    0.10840982447983358306E+01
    0.92400776093235548192E+00
    0.89298873404919665298E+00
    0.98927048569931064215E+00
    0.11500130911190467042E+01
    0.12521008632291321661E+01
    0.12589365300779817858E+01
    0.12602141470654479871E+01
    0.12648836282176181278E+01
    0.12594875245706265154E+01
    0.12703381651695728749E+01
    0.12545431041801711203E+01
    0.12525447014971318183E+01
    0.12204079083545920081E+01
    0.12187893964694540561E+01
    0.12448079730476202531E+01
    0.12081477970668879074E+01
    0.11417458915464149261E+01
    0.89706386782241620548E+00
    0.11346766216337307309E+01
    0.99995914434440280605E+00
    0.98427230019488698431E+00
    0.12492253576894860601E+01
    0.10967566009676192884E+01
    0.11965458756129889739E+01
    0.12518987953503726285E+01
    0.12496803663939481943E+01
    0.11237963383290210384E+01
    0.11903641128016371198E+01
    0.71998541878174782127E+00
    0.83131060547310742237E+00
    0.64212912747784933742E+00
    0.85015074091870335149E+00
    0.91686956811470454731E+00
    0.65309036383043506113E+00
    0.70492755872073742385E+00
    0.11291043600773749134E+01
    0.12272108119869824527E+01
    0.10501161353662205045E+01
    0.12345200874119615086E+01
    0.12185645196309944360E+01
    0.10552940481009336349E+01
    0.11468443420702971736E+01
    0.12638161514859929113E+01
    0.12696946312645254196E+01
    0.12530962391348163809E+01
    0.12664545556347650557E+01
    0.12539202239773408198E+01
    0.12662327447738914721E+01
    0.12586360697611227444E+01
    0.60711780646524338145E+00
    0.58309672190720185370E+00
    0.54032198326115810083E+00
    0.68803491036462016694E+00
    0.67060934238624447801E+00
    0.54415126710589278858E+00
    0.55022040241939518257E+00
    0.12524207053653058086E+01
    0.12637336582934080020E+01
    0.12510668687359021156E+01
    0.12626525247399655871E+01
    0.12366687012992940709E+01
    0.12558352116916893237E+01
    0.12573400956533911099E+01
    0.12658058296197427506E+01
    0.12595962308014412301E+01
    0.12574399620103866582E+01
    0.12678832558445738421E+01
    0.12396761620731897580E+01
    0.12577697875504598723E+01
    0.12627182401420269375E+01
    0.12681554191883375182E+01
    0.12520088553452042301E+01
    0.76575143830396719125E+00
    0.88418077517125159837E+00
    0.76345095777679305993E+00
    0.87435049578238399626E+00
    0.94062741613443812128E+00
    0.12495110848211874455E+01
    0.12611181713772612323E+01
    0.12631433645465537374E+01
    0.12718844621118903238E+01
    0.12626257326452710039E+01
    0.11335198701752786654E+01
    0.12265680315371911835E+01
    0.12549002994230065156E+01
    0.10951404053667146421E+01
    0.11838547243471515547E+01
    0.12672379040501855485E+01
    0.12616983284471217086E+01
    0.12677818614106366457E+01
    0.12536974264483358166E+01
    0.12666150445820556492E+01
    0.10527490011842677298E+01
    0.12481767562125014592E+01
    0.11388938922228681871E+01
    0.11473704605629078124E+01
    0.12326032522602115016E+01
    0.12631361467072816929E+01
    0.12574073187056586942E+01
    0.12629058164875277548E+01
    0.12554779908770916652E+01
    0.12243743894218610535E+01
    0.74431626283186047566E+00
    0.99562810276604252202E+00
    0.84273540236945054804E+00
    0.80540304827969466661E+00
    0.93981873380809866081E+00
    0.73352162504835627388E+00
    0.65151612494288524413E+00
    0.74702445325338096005E+00
    0.65874438768401322175E+00
    0.82299995845802342842E+00
    0.11855153501331501253E+01
    0.12476184464294743925E+01
    0.12382652397024300761E+01
    0.12404147386586052981E+01
    0.12440688227493437168E+01
    0.12332130306476551951E+01
    0.12361314118884083602E+01
    0.12583510328521767541E+01
    0.12575523849714962399E+01
    0.12547145888820749882E+01
    0.12717940031785914812E+01
    0.12691633535869732974E+01
    0.12665607462284922402E+01
    0.12685688650747890538E+01
    0.11778933963533695373E+01
    0.11252019557412822337E+01
    0.11196867090372004672E+01
    0.12417893517745577370E+01
    0.10777697180903376140E+01
    0.12018844054072146399E+01
    0.65124435137903347037E+00
    0.70048282662187533187E+00
    0.84428412332902580406E+00
    0.82423895202660923953E+00
    0.83917389179407875233E+00
    0.95748904640992826831E+00
    0.97978859814438079567E+00
    0.10656482156931850191E+01
    0.12117043515158252287E+01
    0.12587536000376533529E+01
    0.12553136671573028593E+01
    0.12518727276266417014E+01
    0.12682122798358717031E+01
    0.12660296638408952141E+01
    0.12325107913129083048E+01
    0.12673523778455777489E+01
    0.12500105234638441143E+01
    0.10570315826491245570E+01
    0.11122459518319414151E+01
    0.12664694922942931754E+01
    0.12586590576409890652E+01
    0.80308954968894563642E+00
    0.67512945009802083352E+00
    0.62384157543748863795E+00
    0.11907188722542414450E+01
    0.10141165876432345350E+01
    0.99471822881366267488E+00
    0.12544253625910748440E+01
    0.12584084122035359421E+01
    0.12121920894125843837E+01
    0.12549029288220099332E+01
    0.12631599215100230982E+01
    0.12604078904561983876E+01
    0.98541171536547977894E+00
    0.10090638478490179253E+01
    0.75964977335234851186E+00
    0.12591039328490094551E+01
    0.12710581668105465081E+01
    0.12642156894052840599E+01
    0.71050792765056192124E+00
    0.68651632814866891952E+00
    0.56327551564624256386E+00
    0.66181158587206279087E+00
    0.58797284505061686577E+00
    0.54209957088221627508E+00
    0.12507451317743587538E+01
    0.12350020680379687477E+01
    0.12637477898043718572E+01
    0.12631885340154420660E+01
    0.12276236463303784596E+01
    0.12484557771812445637E+01
    0.12621696394076795666E+01
    0.12590000441543314214E+01
    0.97790827654443202022E+00
    0.12422298828332758447E+01
    0.11971561854928092217E+01
    0.10842323726288689567E+01
    0.12436300351525431118E+01
    0.12472170096519996640E+01
    0.12184026212755061369E+01
    0.12642098921593625249E+01
    0.12589751708283978271E+01
    0.92789675651119352118E+00
    0.10116221285291144838E+01
    0.57176186522872729512E+00
    0.60562410128340893323E+00
    0.12515618564749275698E+01
    0.12562168827681425842E+01
    0.52794514758095578699E+00
    0.52786254593683734626E+00
    0.12516745373534892138E+01
    0.10042524429482222459E+01
    0.99537844060638558386E+00
    0.12629335965682209064E+01
    0.78591277429572936608E+00
    0.12546068153864338157E+01
    0.12459485672536945167E+01
    0.86119619646789158374E+00
    0.12640683813981028472E+01
    0.12519802502048604786E+01
    0.12633454557544530061E+01
    0.12530578668077225757E+01
    0.12538757918972311955E+01
    0.78987254073615509320E+00
    0.88221593404832576724E+00
    0.12242755896960997308E+01
    0.12590488881735732996E+01
    0.12615345491605221007E+01
    0.10750579503418495886E+01
    0.12590304804152272489E+01
    0.12580419188846092560E+01
    0.11750674844501141081E+01
    0.98522606084872244026E+00
    0.73736510344868200217E+00
    0.67492469552371681107E+00
    0.11028518478821691673E+01
    0.10665084231808912296E+01
    0.53895055048899143113E+00
    0.53654025963151330547E+00
    0.64882606138554643760E+00
    0.63822655686687346233E+00
    0.98270070356679983803E+00
    0.12141852993102129066E+01
    0.13019465149130784454E+01
    0.13429555879384300621E+01
    0.13513407487948363439E+01
    0.13244885549071587771E+01
    0.12564568415347621144E+01
    0.11870514816520425505E+01
    0.12200667868723260590E+01
    0.12146462918403073683E+01
    0.11238062086856692723E+01
    0.95136944117181432290E+00
    0.75212797984926926809E+00
    0.58811028760037242780E+00
    0.52650846993491329240E+00
    0.54259835933061051350E+00
    0.55288574687220082282E+00
    0.55211891291388603964E+00
    0.53274545760249081283E+00
    0.52678083633827610388E+00
    0.55720572710642768399E+00
    0.74813241168386124258E+00
    0.79205426112048105125E+00
    0.77096172345320135300E+00
    0.70870141935613062412E+00
    0.61516158390869735140E+00
    0.54483698315667183909E+00
    0.54141795062449538101E+00
