# vtk DataFile Version 3.0
LAPLACIEN  2D
ASCII
DATASET UNSTRUCTURED_GRID
 POINTS         391  float
  0.50371505999999999       0.50367786999999997        0.0000000000000000     
  0.29013556000000001       0.29014535000000002        0.0000000000000000     
  0.70165584999999997       0.71206597999999999        0.0000000000000000     
  0.70304188999999995       0.30176619999999998        0.0000000000000000     
  0.30920671999999999       0.71149227999999998        0.0000000000000000     
  0.79044983999999996       0.49884783999999999        0.0000000000000000     
  0.49102621000000002       0.20968644000000000        0.0000000000000000     
  0.49912957000000002       0.77208717000000004        0.0000000000000000     
  0.21724072999999999       0.48989389000000000        0.0000000000000000     
  0.83255933999999998       0.83046598000000005        0.0000000000000000     
  0.16646774000000000       0.17015694000000001        0.0000000000000000     
  0.83054514999999995       0.16736480000000001        0.0000000000000000     
  0.16953130999999999       0.83265739000000005        0.0000000000000000     
  0.42166445000000002       0.36345201999999999        0.0000000000000000     
  0.64462200999999997       0.56347807999999999        0.0000000000000000     
  0.35324633999999999       0.56311191000000005        0.0000000000000000     
  0.65456411000000003       0.84856860999999995        0.0000000000000000     
  0.35141477999999998       0.15563974000000000        0.0000000000000000     
  0.15290967000000000       0.35206625000000003        0.0000000000000000     
  0.82942241000000005       0.34936866000000000        0.0000000000000000     
  0.84390527000000004       0.64441694999999999        0.0000000000000000     
  0.63699174999999997       0.14284276000000001        0.0000000000000000     
  0.15620682999999999       0.64648446999999998        0.0000000000000000     
  0.36426062999999997       0.85756310999999996        0.0000000000000000     
  0.63489340999999999       0.40519052000000000        0.0000000000000000     
  0.52518872999999999       0.65957078000000002        0.0000000000000000     
  0.32158959999999998       0.42298103999999997        0.0000000000000000     
  0.58861710000000000       0.31711036999999997        0.0000000000000000     
  0.42078418000000001       0.69497151999999995        0.0000000000000000     
  0.48608786999999998       0.89334152000000000        0.0000000000000000     
   9.7084320000000002E-002  0.50000000000000000        0.0000000000000000     
  0.90291568000000000       0.50000000000000000        0.0000000000000000     
  0.51392453000000005       0.10668648999999999        0.0000000000000000     
  0.59792566999999996       0.73122754000000001        0.0000000000000000     
  0.74510058999999995       0.41124730999999998        0.0000000000000000     
  0.73212551999999997       0.90191560000000004        0.0000000000000000     
   9.7784830000000003E-002  0.26957329000000002        0.0000000000000000     
  0.26711221000000002        9.8671499999999995E-002   0.0000000000000000     
  0.90191560000000004       0.26787448000000003        0.0000000000000000     
  0.90118569000000004       0.73039821000000005        0.0000000000000000     
  0.73122947000000005        9.8017859999999998E-002   0.0000000000000000     
   9.8084400000000002E-002  0.73212551999999997        0.0000000000000000     
  0.26957329000000002       0.90221516999999996        0.0000000000000000     
  0.39283522999999998       0.25360379000000000        0.0000000000000000     
  0.74480864000000002       0.60495284999999999        0.0000000000000000     
  0.25505132000000003       0.60593640999999998        0.0000000000000000     
  0.52159297999999998       0.40671636000000000        0.0000000000000000     
  0.40768852000000000       0.47699891000000000        0.0000000000000000     
   9.1467049999999994E-002   9.1876959999999994E-002   0.0000000000000000     
  0.90842484999999995       0.90819225000000003        0.0000000000000000     
  0.90820104999999995        9.1566729999999999E-002   0.0000000000000000     
   9.1807449999999999E-002  0.90843574000000005        0.0000000000000000     
  0.27098960000000000       0.20527094000000001        0.0000000000000000     
  0.73457293999999995       0.79835387000000002        0.0000000000000000     
  0.79817773000000003       0.25713470999999999        0.0000000000000000     
  0.20747797000000001       0.72863946000000002        0.0000000000000000     
  0.20175195000000001       0.27583914999999998        0.0000000000000000     
  0.79603889000000005       0.72159035000000005        0.0000000000000000     
  0.71761666000000002       0.19748431999999999        0.0000000000000000     
  0.28462607000000001       0.80251899999999998        0.0000000000000000     
  0.69134598999999997       0.49261972999999998        0.0000000000000000     
  0.44720578999999999       0.58582935999999997        0.0000000000000000     
  0.24242269999999999       0.37228174000000003        0.0000000000000000     
  0.38265623999999998       0.93072131999999996        0.0000000000000000     
  0.60971754000000000       0.91988369000000003        0.0000000000000000     
   7.9163609999999995E-002  0.60979116000000000        0.0000000000000000     
  0.92010649000000000       0.61081183999999999        0.0000000000000000     
  0.61954008999999999        7.1530830000000004E-002   0.0000000000000000     
  0.91882012999999996       0.38917363999999999        0.0000000000000000     
  0.39086346000000000        8.0652249999999995E-002   0.0000000000000000     
   7.9183480000000001E-002  0.38966213000000000        0.0000000000000000     
  0.59114111999999996       0.49294315000000000        0.0000000000000000     
  0.63337980999999999       0.64485914000000000        0.0000000000000000     
  0.50012352000000004       0.29676539000000002        0.0000000000000000     
  0.82552601000000003       0.92753492000000004        0.0000000000000000     
  0.92774772999999999       0.82498556999999995        0.0000000000000000     
   7.1970870000000006E-002  0.17510291000000000        0.0000000000000000     
  0.17422821999999999        7.2635640000000001E-002   0.0000000000000000     
  0.82510813000000005        7.2134840000000006E-002   0.0000000000000000     
  0.92754665000000003       0.17446275999999999        0.0000000000000000     
  0.17501022999999999       0.92789951999999998        0.0000000000000000     
   7.2464680000000004E-002  0.82554053000000005        0.0000000000000000     
  0.30731587999999999       0.50885354999999999        0.0000000000000000     
  0.59033407999999998       0.22171178999999999        0.0000000000000000     
  0.40109191999999999       0.78725542000000004        0.0000000000000000     
  0.35420917000000002       0.63754104000000000        0.0000000000000000     
  0.15983976999999999       0.56665573000000002        0.0000000000000000     
  0.84108459999999996       0.56757886999999996        0.0000000000000000     
  0.83902096000000004       0.43344338999999998        0.0000000000000000     
  0.43230028999999998       0.16004268999999999        0.0000000000000000     
  0.57536027999999995       0.83041363999999995        0.0000000000000000     
  0.15771898000000001       0.42747892999999998        0.0000000000000000     
  0.34021692999999997       0.34221559000000001        0.0000000000000000     
  0.56002271999999997       0.57501117999999996        0.0000000000000000     
  0.65344329000000001       0.78147597999999996        0.0000000000000000     
   0.0000000000000000        0.0000000000000000        0.0000000000000000     
   1.0000000000000000        0.0000000000000000        0.0000000000000000     
   1.0000000000000000        1.0000000000000000        0.0000000000000000     
   0.0000000000000000        1.0000000000000000        0.0000000000000000     
  0.11111111000000000        0.0000000000000000        0.0000000000000000     
  0.22222222000000000        0.0000000000000000        0.0000000000000000     
  0.33333332999999998        0.0000000000000000        0.0000000000000000     
  0.44444444000000000        0.0000000000000000        0.0000000000000000     
  0.55555555999999995        0.0000000000000000        0.0000000000000000     
  0.66666667000000002        0.0000000000000000        0.0000000000000000     
  0.77777777999999997        0.0000000000000000        0.0000000000000000     
  0.88888889000000004        0.0000000000000000        0.0000000000000000     
   1.0000000000000000       0.11111111000000000        0.0000000000000000     
   1.0000000000000000       0.22222222000000000        0.0000000000000000     
   1.0000000000000000       0.33333332999999998        0.0000000000000000     
   1.0000000000000000       0.44444444000000000        0.0000000000000000     
   1.0000000000000000       0.55555555999999995        0.0000000000000000     
   1.0000000000000000       0.66666667000000002        0.0000000000000000     
   1.0000000000000000       0.77777777999999997        0.0000000000000000     
   1.0000000000000000       0.88888889000000004        0.0000000000000000     
  0.88888889000000004        1.0000000000000000        0.0000000000000000     
  0.77777777999999997        1.0000000000000000        0.0000000000000000     
  0.66666667000000002        1.0000000000000000        0.0000000000000000     
  0.55555555999999995        1.0000000000000000        0.0000000000000000     
  0.44444444000000000        1.0000000000000000        0.0000000000000000     
  0.33333332999999998        1.0000000000000000        0.0000000000000000     
  0.22222222000000000        1.0000000000000000        0.0000000000000000     
  0.11111111000000000        1.0000000000000000        0.0000000000000000     
   0.0000000000000000       0.11111111000000000        0.0000000000000000     
   0.0000000000000000       0.22222222000000000        0.0000000000000000     
[...]
 CELL_DATA         354
 SCALARS C float
 LOOKUP_TABLE default
    0.74251306414584550275E+00
    0.11471467696689472415E+01
    0.51937393769470041605E+00
    0.59890167632756463600E+00
    0.85994430260631304908E+00
    0.97490740366762240754E+00
    0.12362821958484486728E+01
    0.11079301404808108433E+01
    0.13430216177231866226E+01
    0.14129566127453987434E+01
    0.14771038664913218597E+01
    0.14633014113801170453E+01
    0.14867899309657406359E+01
    0.14906712335386274049E+01
    0.14830828276735856797E+01
    0.14875085688953673113E+01
    0.14545733811622627574E+01
    0.14091260116724166895E+01
    0.12603999202430222759E+01
    0.13339692781299312685E+01
    0.12175616318874391553E+01
    0.12548819603103005260E+01
    0.13382381365546569540E+01
    0.12992747321912379022E+01
    0.13475697619650559567E+01
    0.13274600744280866671E+01
    0.12580274911122939496E+01
    0.12961673245641645025E+01
    0.11853900100713992138E+01
    0.10803205788868783799E+01
    0.85780176580741296366E+00
    0.97260857099269315551E+00
    0.74677241382667591818E+00
    0.63486307896405147488E+00
    0.52207095461137442705E+00
    0.56616950584128555857E+00
    0.51319452926871922394E+00
    0.52078343156209205844E+00
    0.56545345494924825758E+00
    0.53170711111510882141E+00
    0.58013067901904225021E+00
    0.58333900413893591264E+00
    0.60210564021175416727E+00
    0.58858441025320906714E+00
    0.59073504079901317798E+00
    0.54842843788990880416E+00
    0.52185733347007079441E+00
    0.53276134218671244991E+00
    0.51707753234865105885E+00
    0.50780359990201251463E+00
    0.54728002556926713673E+00
    0.52841956130994516272E+00
    0.78355241587360224820E+00
    0.80691790192340351329E+00
    0.88956778085881260676E+00
    0.84134360535608021525E+00
    0.89805832693766496355E+00
    0.86853134795367914478E+00
    0.81614057282342766797E+00
    0.84274156756814744273E+00
    0.76638121181417062644E+00
    0.68650248548240722091E+00
    0.57228292718215456603E+00
    0.62935906306874556115E+00
    0.53714834418244961078E+00
    0.50591584677944878568E+00
    0.53689842188145231461E+00
    0.51792679466001234623E+00
    0.14362659649158571185E+01
    0.14890767932161024234E+01
    0.14863360949167518932E+01
    0.14736442803368561272E+01
    0.14936710753208468638E+01
    0.14870866687257571215E+01
    0.14674635761777998777E+01
    0.14246792556507030802E+01
    0.14525846159450717110E+01
    0.14914940663551470301E+01
    0.12189035128814365017E+01
    0.13100848042764186019E+01
    0.10741747947640978289E+01
    0.11585728205733594187E+01
    0.13179792465283051150E+01
    0.11212326905460316961E+01
    0.14457492420502262576E+01
    0.13226596203283764730E+01
    0.11984787508809158219E+01
    0.14153757597034881677E+01
    0.14367637640923196507E+01
    0.13842970868475119595E+01
    0.12650525807007682033E+01
    0.11265888560365682203E+01
    0.10889096382799199336E+01
    0.91830850457559232147E+00
    0.88525625679803254808E+00
    0.98650756601240818799E+00
    0.11635051549712285279E+01
    0.14236150825605866643E+01
    0.14889642925571096033E+01
    0.14543583273399174338E+01
    0.14908935432781720287E+01
    0.14215354069711820806E+01
    0.14804939958602336691E+01
    0.14111868060508097056E+01
    0.14052139663471678865E+01
    0.12981100833836767272E+01
    0.12987458070445074831E+01
    0.14289644333882867144E+01
    0.12290364366123380790E+01
    0.11539297002707129547E+01
    0.89097698059893259970E+00
    0.11437259127090519950E+01
    0.99892841971924861699E+00
    0.98209937579176997957E+00
    0.13961455106087865552E+01
    0.11026281925079961521E+01
    0.12239292825719283453E+01
    0.13501894148083091185E+01
    0.13500937376860524530E+01
    0.11283996032500775986E+01
    0.12222224476800189752E+01
    0.70351401362873411394E+00
    0.81974349412950009430E+00
    0.62316440103837456022E+00
    0.84062252593446251669E+00
    0.91075070785382750138E+00
    0.63398416764929654832E+00
    0.68776124589177767277E+00
    0.11354492059507785839E+01
    0.12898002425272221405E+01
    0.10503250370015315696E+01
    0.13398751138526596716E+01
    0.12784810631133165515E+01
    0.10544334281730793901E+01
    0.11571973190029347656E+01
    0.14704614793772528003E+01
    0.14932324036746835727E+01
    0.14138013751393827544E+01
    0.14922242990358292047E+01
    0.14796437584568429280E+01
    0.14599168591967712771E+01
    0.14292505182841270805E+01
    0.58641093872131477838E+00
    0.56161132292349680295E+00
    0.51884881982289665636E+00
    0.67090092475713825060E+00
    0.65258556616606933076E+00
    0.52214105961588108684E+00
    0.52817607053535786665E+00
    0.14797935713596308549E+01
    0.14419120900010593544E+01
    0.13889634036401790063E+01
    0.14697599865793582463E+01
    0.13489286587744473422E+01
    0.14767174961638815933E+01
    0.14631412935579648504E+01
    0.14935681478669131650E+01
    0.14894233144723849627E+01
    0.14587673297218688440E+01
    0.14919283447518107977E+01
    0.13051806688167308934E+01
    0.14620330577515059378E+01
    0.14350887910306076023E+01
    0.14090212172931659840E+01
    0.13457489201024950276E+01
    0.75253402859251539159E+00
    0.87746254603769691105E+00
    0.75040811768859161379E+00
    0.86616901607717733391E+00
    0.93619241097580396804E+00
    0.14441486785460333486E+01
    0.14882101427135649985E+01
    0.14741012575307872456E+01
    0.14869247220269392606E+01
    0.14911013802289991848E+01
    0.11422813888966441009E+01
    0.12771315065086994434E+01
    0.13111039828938881868E+01
    0.11003039110926380317E+01
    0.12007670025562116045E+01
    0.14839329016459534838E+01
    0.14788955866599611255E+01
    0.14907355738546761437E+01
    0.14630699410718039921E+01
    0.14903602440350061098E+01
    0.10564964849626792276E+01
    0.12997114293447873390E+01
    0.11491650820660732624E+01
    0.11592363591097381015E+01
    0.12826852452319559283E+01
    0.14432209743986246231E+01
    0.14718590121426990969E+01
    0.14275087728867110748E+01
    0.14713231626049445566E+01
    0.13577758055162756357E+01
    0.73025620431292836976E+00
    0.99308437457690279526E+00
    0.83221768449532296241E+00
    0.79434250858265542661E+00
    0.93471475729410147260E+00
    0.71678680382959192308E+00
    0.63303385796072153546E+00
    0.73178815133572494567E+00
    0.63975698635304012463E+00
    0.81042321001127493041E+00
    0.12140500236300615367E+01
    0.14090206246305565507E+01
    0.13227574083032189733E+01
    0.14304667190975730584E+01
    0.14066773311278926162E+01
    0.13038962437980474718E+01
    0.12911618603834611463E+01
    0.14174267838118825846E+01
    0.13932022741783438580E+01
    0.14434683639850152126E+01
    0.14920280769082800987E+01
    0.14498484434487228789E+01
    0.14504082967365101720E+01
    0.14919963502194957261E+01
    0.12045490201709405653E+01
    0.11436174849357456651E+01
    0.11372543730402173701E+01
    0.13493902971778450883E+01
    0.10809605099618722068E+01
    0.12571367464506968403E+01
    0.63183772555685591144E+00
    0.68327473228755153389E+00
    0.83397394759671650277E+00
    0.81344320745141029949E+00
    0.82844356396619345251E+00
    0.95226543450755485321E+00
    0.97630195760225069179E+00
    0.10699256855720706838E+01
    0.12322656912022258435E+01
    0.13737084402085204538E+01
    0.13494896681946537687E+01
    0.14266452895910259890E+01
    0.14860011290513852611E+01
    0.14887435403471098727E+01
    0.13682368849041575132E+01
    0.14742296323502999122E+01
    0.13127305000711211314E+01
    0.10593829807012964395E+01
    0.11170932984127013299E+01
    0.14776418860615543327E+01
    0.14892269416027368312E+01
    0.79138572050980771078E+00
    0.65731084928198757478E+00
    0.60370665518476174238E+00
    0.12069764177126951488E+01
    0.10113887560225971463E+01
    0.98993034092572096405E+00
    0.14047334574558056897E+01
    0.14307266730971117674E+01
    0.12276960778340739733E+01
    0.14833254149278132239E+01
    0.14258980088962949218E+01
    0.14061326204128234973E+01
    0.98344303207172401038E+00
    0.10083195283803567666E+01
    0.74462876316635395746E+00
    0.14761378235566005035E+01
    0.14954571925796389387E+01
    0.14696888986744891525E+01
    0.69440711488115680616E+00
    0.66940103296837927260E+00
    0.54158960443149384290E+00
    0.64358522649930627324E+00
    0.56699671949351981848E+00
    0.52005762269389377295E+00
    0.14780988525997267313E+01
    0.13642222977559539387E+01
    0.14682069479534218814E+01
    0.14845048865191752263E+01
    0.12494154207922547606E+01
    0.14711521348820015831E+01
    0.14080157039570628807E+01
    0.13840686407006677072E+01
    0.97454274553992958907E+00
    0.13075446966284329786E+01
    0.12273995986680314996E+01
    0.10865464366998918155E+01
    0.14392272568753647910E+01
    0.14079623088528445685E+01
    0.12737576945126856121E+01
    0.14834355351637844578E+01
    0.14660475473014078496E+01
    0.92054448085535878210E+00
    0.10097744572688687192E+01
    0.55043443530012159393E+00
    0.58539933893978723933E+00
    0.13800365756355372771E+01
    0.13452931482605421376E+01
    0.50676950116124064305E+00
    0.50644362980718582445E+00
    0.13959477774196731303E+01
    0.10038328371760212310E+01
    0.99487221411472226418E+00
    0.14646110140348604922E+01
    0.77312292841665186671E+00
    0.13809738423934201368E+01
    0.13403181034604918498E+01
    0.85075100004170056689E+00
    0.14747487584533249816E+01
    0.13685129926824626256E+01
    0.14772635816616479509E+01
    0.12950343340137342452E+01
    0.14701577050882432829E+01
    0.77769758578023384654E+00
    0.87463366619186422302E+00
    0.12503487973752316353E+01
    0.14479212440366016068E+01
    0.14896243143055702962E+01
    0.10789513007796576183E+01
    0.14889722339695374842E+01
    0.14555326015792426908E+01
    0.12015756767140242101E+01
    0.98309371017842928087E+00
    0.72143347272225799571E+00
    0.65547881291294274320E+00
    0.11036033430923470888E+01
    0.10630756039994473383E+01
    0.51881465907642776436E+00
    0.51700245024566038321E+00
    0.63765978079744189966E+00
    0.62589666791643727706E+00
    0.97745979820054751386E+00
    0.12292904398260222631E+01
    0.13941369055406132027E+01
    0.14661820972936445706E+01
    0.14743302346030646710E+01
    0.14361260821837271706E+01
    0.13138064713971746578E+01
    0.11912754717588847075E+01
    0.12526426871019502585E+01
    0.12250659030977544273E+01
    0.11231077960524429304E+01
    0.94239960804090894264E+00
    0.73556473384454756914E+00
    0.56723691945553411653E+00
    0.50482836029608746387E+00
    0.52014798668978146079E+00
    0.53035386004407292226E+00
    0.52961053946319180952E+00
    0.51047721987003202848E+00
    0.50569098959505720536E+00
    0.53971484655456425372E+00
    0.73085945631819992929E+00
    0.77595860948783101918E+00
    0.75413317237107413415E+00
    0.69000456111624774991E+00
    0.59400537626267624347E+00
    0.52275120472916780656E+00
    0.52213062020273093289E+00
