# vtk DataFile Version 3.0
LAPLACIEN  2D
ASCII
DATASET UNSTRUCTURED_GRID
 POINTS         391  float
  0.50371505999999999       0.50367786999999997        0.0000000000000000     
  0.29013556000000001       0.29014535000000002        0.0000000000000000     
  0.70165584999999997       0.71206597999999999        0.0000000000000000     
  0.70304188999999995       0.30176619999999998        0.0000000000000000     
  0.30920671999999999       0.71149227999999998        0.0000000000000000     
  0.79044983999999996       0.49884783999999999        0.0000000000000000     
  0.49102621000000002       0.20968644000000000        0.0000000000000000     
  0.49912957000000002       0.77208717000000004        0.0000000000000000     
  0.21724072999999999       0.48989389000000000        0.0000000000000000     
  0.83255933999999998       0.83046598000000005        0.0000000000000000     
  0.16646774000000000       0.17015694000000001        0.0000000000000000     
  0.83054514999999995       0.16736480000000001        0.0000000000000000     
  0.16953130999999999       0.83265739000000005        0.0000000000000000     
  0.42166445000000002       0.36345201999999999        0.0000000000000000     
  0.64462200999999997       0.56347807999999999        0.0000000000000000     
  0.35324633999999999       0.56311191000000005        0.0000000000000000     
  0.65456411000000003       0.84856860999999995        0.0000000000000000     
  0.35141477999999998       0.15563974000000000        0.0000000000000000     
  0.15290967000000000       0.35206625000000003        0.0000000000000000     
  0.82942241000000005       0.34936866000000000        0.0000000000000000     
  0.84390527000000004       0.64441694999999999        0.0000000000000000     
  0.63699174999999997       0.14284276000000001        0.0000000000000000     
  0.15620682999999999       0.64648446999999998        0.0000000000000000     
  0.36426062999999997       0.85756310999999996        0.0000000000000000     
  0.63489340999999999       0.40519052000000000        0.0000000000000000     
  0.52518872999999999       0.65957078000000002        0.0000000000000000     
  0.32158959999999998       0.42298103999999997        0.0000000000000000     
  0.58861710000000000       0.31711036999999997        0.0000000000000000     
  0.42078418000000001       0.69497151999999995        0.0000000000000000     
  0.48608786999999998       0.89334152000000000        0.0000000000000000     
   9.7084320000000002E-002  0.50000000000000000        0.0000000000000000     
  0.90291568000000000       0.50000000000000000        0.0000000000000000     
  0.51392453000000005       0.10668648999999999        0.0000000000000000     
  0.59792566999999996       0.73122754000000001        0.0000000000000000     
  0.74510058999999995       0.41124730999999998        0.0000000000000000     
  0.73212551999999997       0.90191560000000004        0.0000000000000000     
   9.7784830000000003E-002  0.26957329000000002        0.0000000000000000     
  0.26711221000000002        9.8671499999999995E-002   0.0000000000000000     
  0.90191560000000004       0.26787448000000003        0.0000000000000000     
  0.90118569000000004       0.73039821000000005        0.0000000000000000     
  0.73122947000000005        9.8017859999999998E-002   0.0000000000000000     
   9.8084400000000002E-002  0.73212551999999997        0.0000000000000000     
  0.26957329000000002       0.90221516999999996        0.0000000000000000     
  0.39283522999999998       0.25360379000000000        0.0000000000000000     
  0.74480864000000002       0.60495284999999999        0.0000000000000000     
  0.25505132000000003       0.60593640999999998        0.0000000000000000     
  0.52159297999999998       0.40671636000000000        0.0000000000000000     
  0.40768852000000000       0.47699891000000000        0.0000000000000000     
   9.1467049999999994E-002   9.1876959999999994E-002   0.0000000000000000     
  0.90842484999999995       0.90819225000000003        0.0000000000000000     
  0.90820104999999995        9.1566729999999999E-002   0.0000000000000000     
   9.1807449999999999E-002  0.90843574000000005        0.0000000000000000     
  0.27098960000000000       0.20527094000000001        0.0000000000000000     
  0.73457293999999995       0.79835387000000002        0.0000000000000000     
  0.79817773000000003       0.25713470999999999        0.0000000000000000     
  0.20747797000000001       0.72863946000000002        0.0000000000000000     
  0.20175195000000001       0.27583914999999998        0.0000000000000000     
  0.79603889000000005       0.72159035000000005        0.0000000000000000     
  0.71761666000000002       0.19748431999999999        0.0000000000000000     
  0.28462607000000001       0.80251899999999998        0.0000000000000000     
  0.69134598999999997       0.49261972999999998        0.0000000000000000     
  0.44720578999999999       0.58582935999999997        0.0000000000000000     
  0.24242269999999999       0.37228174000000003        0.0000000000000000     
  0.38265623999999998       0.93072131999999996        0.0000000000000000     
  0.60971754000000000       0.91988369000000003        0.0000000000000000     
   7.9163609999999995E-002  0.60979116000000000        0.0000000000000000     
  0.92010649000000000       0.61081183999999999        0.0000000000000000     
  0.61954008999999999        7.1530830000000004E-002   0.0000000000000000     
  0.91882012999999996       0.38917363999999999        0.0000000000000000     
  0.39086346000000000        8.0652249999999995E-002   0.0000000000000000     
   7.9183480000000001E-002  0.38966213000000000        0.0000000000000000     
  0.59114111999999996       0.49294315000000000        0.0000000000000000     
  0.63337980999999999       0.64485914000000000        0.0000000000000000     
  0.50012352000000004       0.29676539000000002        0.0000000000000000     
  0.82552601000000003       0.92753492000000004        0.0000000000000000     
  0.92774772999999999       0.82498556999999995        0.0000000000000000     
   7.1970870000000006E-002  0.17510291000000000        0.0000000000000000     
  0.17422821999999999        7.2635640000000001E-002   0.0000000000000000     
  0.82510813000000005        7.2134840000000006E-002   0.0000000000000000     
  0.92754665000000003       0.17446275999999999        0.0000000000000000     
  0.17501022999999999       0.92789951999999998        0.0000000000000000     
   7.2464680000000004E-002  0.82554053000000005        0.0000000000000000     
  0.30731587999999999       0.50885354999999999        0.0000000000000000     
  0.59033407999999998       0.22171178999999999        0.0000000000000000     
  0.40109191999999999       0.78725542000000004        0.0000000000000000     
  0.35420917000000002       0.63754104000000000        0.0000000000000000     
  0.15983976999999999       0.56665573000000002        0.0000000000000000     
  0.84108459999999996       0.56757886999999996        0.0000000000000000     
  0.83902096000000004       0.43344338999999998        0.0000000000000000     
  0.43230028999999998       0.16004268999999999        0.0000000000000000     
  0.57536027999999995       0.83041363999999995        0.0000000000000000     
  0.15771898000000001       0.42747892999999998        0.0000000000000000     
  0.34021692999999997       0.34221559000000001        0.0000000000000000     
  0.56002271999999997       0.57501117999999996        0.0000000000000000     
  0.65344329000000001       0.78147597999999996        0.0000000000000000     
   0.0000000000000000        0.0000000000000000        0.0000000000000000     
   1.0000000000000000        0.0000000000000000        0.0000000000000000     
   1.0000000000000000        1.0000000000000000        0.0000000000000000     
   0.0000000000000000        1.0000000000000000        0.0000000000000000     
  0.11111111000000000        0.0000000000000000        0.0000000000000000     
  0.22222222000000000        0.0000000000000000        0.0000000000000000     
  0.33333332999999998        0.0000000000000000        0.0000000000000000     
  0.44444444000000000        0.0000000000000000        0.0000000000000000     
  0.55555555999999995        0.0000000000000000        0.0000000000000000     
  0.66666667000000002        0.0000000000000000        0.0000000000000000     
  0.77777777999999997        0.0000000000000000        0.0000000000000000     
  0.88888889000000004        0.0000000000000000        0.0000000000000000     
   1.0000000000000000       0.11111111000000000        0.0000000000000000     
   1.0000000000000000       0.22222222000000000        0.0000000000000000     
   1.0000000000000000       0.33333332999999998        0.0000000000000000     
   1.0000000000000000       0.44444444000000000        0.0000000000000000     
   1.0000000000000000       0.55555555999999995        0.0000000000000000     
   1.0000000000000000       0.66666667000000002        0.0000000000000000     
   1.0000000000000000       0.77777777999999997        0.0000000000000000     
   1.0000000000000000       0.88888889000000004        0.0000000000000000     
  0.88888889000000004        1.0000000000000000        0.0000000000000000     
  0.77777777999999997        1.0000000000000000        0.0000000000000000     
  0.66666667000000002        1.0000000000000000        0.0000000000000000     
  0.55555555999999995        1.0000000000000000        0.0000000000000000     
  0.44444444000000000        1.0000000000000000        0.0000000000000000     
  0.33333332999999998        1.0000000000000000        0.0000000000000000     
  0.22222222000000000        1.0000000000000000        0.0000000000000000     
  0.11111111000000000        1.0000000000000000        0.0000000000000000     
   0.0000000000000000       0.11111111000000000        0.0000000000000000     
   0.0000000000000000       0.22222222000000000        0.0000000000000000     
[...]
 CELL_DATA         354
 SCALARS C float
 LOOKUP_TABLE default
    0.76453440428487517977E+00
    0.11442944520631490590E+01
    0.54709462554142085366E+00
    0.61769371142655460361E+00
    0.87526628819949414684E+00
    0.98342696782923499921E+00
    0.12053380527917592069E+01
    0.11088107628370398317E+01
    0.12321608213394057429E+01
    0.12278932926884822407E+01
    0.12138386512934757899E+01
    0.12321160686837431264E+01
    0.12207512404720326504E+01
    0.12247120587733415498E+01
    0.12277888926563873540E+01
    0.12220779826232712750E+01
    0.12191680268120794750E+01
    0.12330099156600384802E+01
    0.12019407901855871934E+01
    0.12158007941490949211E+01
    0.11946316355178181468E+01
    0.12241289173661926704E+01
    0.12335218407324561873E+01
    0.12321681132936717074E+01
    0.12317863667219248747E+01
    0.12347498469508304542E+01
    0.12114999321378721042E+01
    0.12298958846804535217E+01
    0.11801263217605377775E+01
    0.10846062910677187752E+01
    0.87484808258740032194E+00
    0.98292930380166843030E+00
    0.76849562662149328851E+00
    0.66153913035117573038E+00
    0.55163543879922705138E+00
    0.59476228121635577040E+00
    0.54218095641666574913E+00
    0.55018489082344446128E+00
    0.59429349843417811350E+00
    0.56143222270361303750E+00
    0.60906342781406908049E+00
    0.61208830647925072110E+00
    0.63028071411573383109E+00
    0.61722756669271849894E+00
    0.61892586881592404069E+00
    0.57820075675304316576E+00
    0.55180547900637111347E+00
    0.56274052299669374833E+00
    0.54606725331101502174E+00
    0.53564747525992029153E+00
    0.57062111134686266389E+00
    0.55407463816015212199E+00
    0.80384635576070195828E+00
    0.82632127231262642031E+00
    0.90500624290196718391E+00
    0.85952810543640723040E+00
    0.91359021490350389438E+00
    0.88550230833618048809E+00
    0.83536275621907052358E+00
    0.86061392645819689839E+00
    0.78758964939265740934E+00
    0.71149246858939130256E+00
    0.60159752572345182031E+00
    0.65636369477849110243E+00
    0.56656607951521131827E+00
    0.53519565920290790295E+00
    0.56172731137678733049E+00
    0.54511632703352130846E+00
    0.12067379284345955970E+01
    0.12307407861336143728E+01
    0.12154012970493894841E+01
    0.12252113956576307086E+01
    0.12204613840711782125E+01
    0.12130137106039176054E+01
    0.12271879885400889254E+01
    0.12246778993157576565E+01
    0.12300165119916215417E+01
    0.12274941318107355226E+01
    0.11892435660620361837E+01
    0.12282829377521744529E+01
    0.10718131546897944339E+01
    0.11404249107167723221E+01
    0.12271487127519069560E+01
    0.11170472641791762136E+01
    0.12063092603507574729E+01
    0.12153297963777049961E+01
    0.11653015455726536409E+01
    0.12135683995151165249E+01
    0.12086412938738073652E+01
    0.12262733155685070496E+01
    0.12010927013526653262E+01
    0.11159191856516916808E+01
    0.10851282186587558609E+01
    0.92803366326101155437E+00
    0.89748379841177772231E+00
    0.99253217372518731665E+00
    0.11479710446825412973E+01
    0.12260982561447533179E+01
    0.12148042072106837175E+01
    0.12268272024666457831E+01
    0.12244489429250657864E+01
    0.12313933089485313843E+01
    0.12343753387322289328E+01
    0.12220945503601463589E+01
    0.12198845827223738780E+01
    0.11963302761307443856E+01
    0.11943122685375231473E+01
    0.12139564434799061665E+01
    0.11978278061025604551E+01
    0.11365523846449128165E+01
    0.90143020804601858842E+00
    0.11323483616752818559E+01
    0.10029758684814951142E+01
    0.98739657677503678279E+00
    0.12288423542252133736E+01
    0.10979454106042485506E+01
    0.11850300970177942705E+01
    0.12265219148292758611E+01
    0.12279395741962757516E+01
    0.11248190263473059058E+01
    0.11755762693650824158E+01
    0.72664879983432717481E+00
    0.83675779142250528153E+00
    0.64937882598155693969E+00
    0.85520642319215511851E+00
    0.92107452527095001749E+00
    0.66031798038153777242E+00
    0.71170370302791474693E+00
    0.11273770954456117099E+01
    0.12092444738535508275E+01
    0.10527897601128810567E+01
    0.12136251382826346301E+01
    0.12043450927524741445E+01
    0.10581252461929138153E+01
    0.11401906267980246312E+01
    0.12289191613801120351E+01
    0.12288432525794574790E+01
    0.12260390885339642608E+01
    0.12261606101377713340E+01
    0.12119745523677694088E+01
    0.12332198612542573102E+01
    0.12290458981338887590E+01
    0.61478237499649002196E+00
    0.59093747647640426646E+00
    0.54806771767484419033E+00
    0.69490177656909080106E+00
    0.67770173934005606409E+00
    0.55204249401599203573E+00
    0.55813546573252836858E+00
    0.12106415132621566322E+01
    0.12324356507815423800E+01
    0.12137249718905998019E+01
    0.12230690288121606191E+01
    0.12043231001687713100E+01
    0.12180561516890822116E+01
    0.12258464714227876868E+01
    0.12258472848863426474E+01
    0.12145936801056311793E+01
    0.12273568171214170874E+01
    0.12268753367148508282E+01
    0.12213980795183483341E+01
    0.12200400139377967079E+01
    0.12317016039604773425E+01
    0.12417892529475189622E+01
    0.12281808940616625314E+01
    0.77179286059121054997E+00
    0.88856096406599205384E+00
    0.76948663525904159588E+00
    0.87897746758045502968E+00
    0.94433852578893773266E+00
    0.12230816227406084984E+01
    0.12184248152895671424E+01
    0.12265705805108360060E+01
    0.12372307442438588154E+01
    0.12213199787601456414E+01
    0.11335224124671305912E+01
    0.12129595567457334138E+01
    0.12315264855336049976E+01
    0.10969736790324091658E+01
    0.11733865027487970778E+01
    0.12270898420500921944E+01
    0.12279091008323586021E+01
    0.12296425323987729694E+01
    0.12230346671109313395E+01
    0.12282164288011263586E+01
    0.10548482264674015063E+01
    0.12310063274462113014E+01
    0.11348716846347564058E+01
    0.11455593205124805500E+01
    0.12181724634864410373E+01
    0.12335080805600746601E+01
    0.12190749786336561034E+01
    0.12318487119974386168E+01
    0.12204400614139769843E+01
    0.11986583364582066302E+01
    0.75055577717151733541E+00
    0.99870081995015591581E+00
    0.84791399434400938073E+00
    0.81092056993626748795E+00
    0.94370272303028335248E+00
    0.74015624701065085844E+00
    0.65875950554020468175E+00
    0.75339280973007116682E+00
    0.66602779280905866077E+00
    0.82862946081632471440E+00
    0.11714312031398432801E+01
    0.12145305000091772829E+01
    0.12149708594447830023E+01
    0.12073554455190682599E+01
    0.12106568955385714759E+01
    0.12159880383631531675E+01
    0.12204142603136762801E+01
    0.12316869532873835347E+01
    0.12324585152532092636E+01
    0.12260585772064795940E+01
    0.12325630960376141587E+01
    0.12404648582110611166E+01
    0.12378800982795343799E+01
    0.12289909551698747769E+01
    0.11692863524865091396E+01
    0.11234733784807500179E+01
    0.11180210695321883829E+01
    0.12176961589136436892E+01
    0.10795661454062273066E+01
    0.11874541168535446278E+01
    0.65858507692367818098E+00
    0.70739017336774423494E+00
    0.84959558670350787679E+00
    0.82967156336145542195E+00
    0.84457902445253296708E+00
    0.96165931522616998617E+00
    0.98338909145521269384E+00
    0.10674502864773831590E+01
    0.11995383066294065255E+01
    0.12364812824482218634E+01
    0.12298169087939161415E+01
    0.12282882088164635004E+01
    0.12328129907000064946E+01
    0.12234541267828002997E+01
    0.12017704761392327129E+01
    0.12312155286673207577E+01
    0.12265477692247055419E+01
    0.10589726048713243856E+01
    0.11131786260805252020E+01
    0.12280740720741440963E+01
    0.12144825626380992833E+01
    0.80866452288885881661E+00
    0.68223825183764841285E+00
    0.63134845020926477765E+00
    0.11855131042617825798E+01
    0.10176992439872332152E+01
    0.99858590825326731810E+00
    0.12305770286296411342E+01
    0.12330579327816157953E+01
    0.12037455840615984837E+01
    0.12163575811360225476E+01
    0.12376553826080813892E+01
    0.12350094745533599649E+01
    0.98862480507659111773E+00
    0.10122162854713061542E+01
    0.76587436512930651134E+00
    0.12193988433284850270E+01
    0.12277119670552170128E+01
    0.12262710863677885875E+01
    0.71713892739852913571E+00
    0.69345321928696834757E+00
    0.57111202747712552785E+00
    0.66893899323786143452E+00
    0.59575758405939027718E+00
    0.54999172184680267250E+00
    0.12050648583848559969E+01
    0.12048447894505749378E+01
    0.12277417498434026744E+01
    0.12254196497548446310E+01
    0.12145569349733924547E+01
    0.12115732078380887504E+01
    0.12379877561255872020E+01
    0.12327255704118709190E+01
    0.98120914723896823784E+00
    0.12232391764589667371E+01
    0.11857664262750151618E+01
    0.10857756234855677757E+01
    0.12086114738589048834E+01
    0.12154860412873260689E+01
    0.11984372082171610430E+01
    0.12251473920331708012E+01
    0.12214933180088962672E+01
    0.93249608021002672320E+00
    0.10148876582104873201E+01
    0.57955468129472342831E+00
    0.61318655414912348611E+00
    0.12257777231975131027E+01
    0.12326154794714740959E+01
    0.53550852757605893473E+00
    0.53551724117197796460E+00
    0.12279055943662129380E+01
    0.10069837053803885052E+01
    0.99812423191008292633E+00
    0.12239388323127529112E+01
    0.79177196842667907362E+00
    0.12304920165834354329E+01
    0.12191992850775406065E+01
    0.86631584905492875492E+00
    0.12248401863044167115E+01
    0.12261990772363557944E+01
    0.12270147359198286807E+01
    0.12262599443750021866E+01
    0.12187754500690761716E+01
    0.79562794156530258771E+00
    0.88689593596448113022E+00
    0.12088635091406789712E+01
    0.12317769090438033253E+01
    0.12199474596038522023E+01
    0.10771428290644373682E+01
    0.12127559119618704919E+01
    0.12281341702970109964E+01
    0.11666091354055345697E+01
    0.98831181411053503627E+00
    0.74394826738704111779E+00
    0.68225814985382382538E+00
    0.11049952689139928008E+01
    0.10699154580019953897E+01
    0.54618169422722961937E+00
    0.54354591520873807298E+00
    0.65304422469208089908E+00
    0.64286032834885664666E+00
    0.98665965779317599260E+00
    0.12011703047528905497E+01
    0.12835772197905366276E+01
    0.13158795200466839592E+01
    0.13234793948210228365E+01
    0.13007237536469942185E+01
    0.12453423857131253882E+01
    0.11858709253147010632E+01
    0.12104333361219450360E+01
    0.12055662501245856255E+01
    0.11263012812090078540E+01
    0.95616209685144704089E+00
    0.75876325087702345407E+00
    0.59580201274921273935E+00
    0.53426693666278612938E+00
    0.55063721800912179827E+00
    0.56098135262946247082E+00
    0.56018737540702190358E+00
    0.54071927306736178309E+00
    0.53431959684210661443E+00
    0.56351270587618706998E+00
    0.75494483625976072094E+00
    0.79852978892446702108E+00
    0.77763683342955514100E+00
    0.71585777642725956227E+00
    0.62295224619468203553E+00
    0.55275068410664585095E+00
    0.54834935512351135056E+00
