# vtk DataFile Version 3.0
LAPLACIEN  2D
ASCII
DATASET UNSTRUCTURED_GRID
 POINTS         391  float
  0.50371505999999999       0.50367786999999997        0.0000000000000000     
  0.29013556000000001       0.29014535000000002        0.0000000000000000     
  0.70165584999999997       0.71206597999999999        0.0000000000000000     
  0.70304188999999995       0.30176619999999998        0.0000000000000000     
  0.30920671999999999       0.71149227999999998        0.0000000000000000     
  0.79044983999999996       0.49884783999999999        0.0000000000000000     
  0.49102621000000002       0.20968644000000000        0.0000000000000000     
  0.49912957000000002       0.77208717000000004        0.0000000000000000     
  0.21724072999999999       0.48989389000000000        0.0000000000000000     
  0.83255933999999998       0.83046598000000005        0.0000000000000000     
  0.16646774000000000       0.17015694000000001        0.0000000000000000     
  0.83054514999999995       0.16736480000000001        0.0000000000000000     
  0.16953130999999999       0.83265739000000005        0.0000000000000000     
  0.42166445000000002       0.36345201999999999        0.0000000000000000     
  0.64462200999999997       0.56347807999999999        0.0000000000000000     
  0.35324633999999999       0.56311191000000005        0.0000000000000000     
  0.65456411000000003       0.84856860999999995        0.0000000000000000     
  0.35141477999999998       0.15563974000000000        0.0000000000000000     
  0.15290967000000000       0.35206625000000003        0.0000000000000000     
  0.82942241000000005       0.34936866000000000        0.0000000000000000     
  0.84390527000000004       0.64441694999999999        0.0000000000000000     
  0.63699174999999997       0.14284276000000001        0.0000000000000000     
  0.15620682999999999       0.64648446999999998        0.0000000000000000     
  0.36426062999999997       0.85756310999999996        0.0000000000000000     
  0.63489340999999999       0.40519052000000000        0.0000000000000000     
  0.52518872999999999       0.65957078000000002        0.0000000000000000     
  0.32158959999999998       0.42298103999999997        0.0000000000000000     
  0.58861710000000000       0.31711036999999997        0.0000000000000000     
  0.42078418000000001       0.69497151999999995        0.0000000000000000     
  0.48608786999999998       0.89334152000000000        0.0000000000000000     
   9.7084320000000002E-002  0.50000000000000000        0.0000000000000000     
  0.90291568000000000       0.50000000000000000        0.0000000000000000     
  0.51392453000000005       0.10668648999999999        0.0000000000000000     
  0.59792566999999996       0.73122754000000001        0.0000000000000000     
  0.74510058999999995       0.41124730999999998        0.0000000000000000     
  0.73212551999999997       0.90191560000000004        0.0000000000000000     
   9.7784830000000003E-002  0.26957329000000002        0.0000000000000000     
  0.26711221000000002        9.8671499999999995E-002   0.0000000000000000     
  0.90191560000000004       0.26787448000000003        0.0000000000000000     
  0.90118569000000004       0.73039821000000005        0.0000000000000000     
  0.73122947000000005        9.8017859999999998E-002   0.0000000000000000     
   9.8084400000000002E-002  0.73212551999999997        0.0000000000000000     
  0.26957329000000002       0.90221516999999996        0.0000000000000000     
  0.39283522999999998       0.25360379000000000        0.0000000000000000     
  0.74480864000000002       0.60495284999999999        0.0000000000000000     
  0.25505132000000003       0.60593640999999998        0.0000000000000000     
  0.52159297999999998       0.40671636000000000        0.0000000000000000     
  0.40768852000000000       0.47699891000000000        0.0000000000000000     
   9.1467049999999994E-002   9.1876959999999994E-002   0.0000000000000000     
  0.90842484999999995       0.90819225000000003        0.0000000000000000     
  0.90820104999999995        9.1566729999999999E-002   0.0000000000000000     
   9.1807449999999999E-002  0.90843574000000005        0.0000000000000000     
  0.27098960000000000       0.20527094000000001        0.0000000000000000     
  0.73457293999999995       0.79835387000000002        0.0000000000000000     
  0.79817773000000003       0.25713470999999999        0.0000000000000000     
  0.20747797000000001       0.72863946000000002        0.0000000000000000     
  0.20175195000000001       0.27583914999999998        0.0000000000000000     
  0.79603889000000005       0.72159035000000005        0.0000000000000000     
  0.71761666000000002       0.19748431999999999        0.0000000000000000     
  0.28462607000000001       0.80251899999999998        0.0000000000000000     
  0.69134598999999997       0.49261972999999998        0.0000000000000000     
  0.44720578999999999       0.58582935999999997        0.0000000000000000     
  0.24242269999999999       0.37228174000000003        0.0000000000000000     
  0.38265623999999998       0.93072131999999996        0.0000000000000000     
  0.60971754000000000       0.91988369000000003        0.0000000000000000     
   7.9163609999999995E-002  0.60979116000000000        0.0000000000000000     
  0.92010649000000000       0.61081183999999999        0.0000000000000000     
  0.61954008999999999        7.1530830000000004E-002   0.0000000000000000     
  0.91882012999999996       0.38917363999999999        0.0000000000000000     
  0.39086346000000000        8.0652249999999995E-002   0.0000000000000000     
   7.9183480000000001E-002  0.38966213000000000        0.0000000000000000     
  0.59114111999999996       0.49294315000000000        0.0000000000000000     
  0.63337980999999999       0.64485914000000000        0.0000000000000000     
  0.50012352000000004       0.29676539000000002        0.0000000000000000     
  0.82552601000000003       0.92753492000000004        0.0000000000000000     
  0.92774772999999999       0.82498556999999995        0.0000000000000000     
   7.1970870000000006E-002  0.17510291000000000        0.0000000000000000     
  0.17422821999999999        7.2635640000000001E-002   0.0000000000000000     
  0.82510813000000005        7.2134840000000006E-002   0.0000000000000000     
  0.92754665000000003       0.17446275999999999        0.0000000000000000     
  0.17501022999999999       0.92789951999999998        0.0000000000000000     
   7.2464680000000004E-002  0.82554053000000005        0.0000000000000000     
  0.30731587999999999       0.50885354999999999        0.0000000000000000     
  0.59033407999999998       0.22171178999999999        0.0000000000000000     
  0.40109191999999999       0.78725542000000004        0.0000000000000000     
  0.35420917000000002       0.63754104000000000        0.0000000000000000     
  0.15983976999999999       0.56665573000000002        0.0000000000000000     
  0.84108459999999996       0.56757886999999996        0.0000000000000000     
  0.83902096000000004       0.43344338999999998        0.0000000000000000     
  0.43230028999999998       0.16004268999999999        0.0000000000000000     
  0.57536027999999995       0.83041363999999995        0.0000000000000000     
  0.15771898000000001       0.42747892999999998        0.0000000000000000     
  0.34021692999999997       0.34221559000000001        0.0000000000000000     
  0.56002271999999997       0.57501117999999996        0.0000000000000000     
  0.65344329000000001       0.78147597999999996        0.0000000000000000     
   0.0000000000000000        0.0000000000000000        0.0000000000000000     
   1.0000000000000000        0.0000000000000000        0.0000000000000000     
   1.0000000000000000        1.0000000000000000        0.0000000000000000     
   0.0000000000000000        1.0000000000000000        0.0000000000000000     
  0.11111111000000000        0.0000000000000000        0.0000000000000000     
  0.22222222000000000        0.0000000000000000        0.0000000000000000     
  0.33333332999999998        0.0000000000000000        0.0000000000000000     
  0.44444444000000000        0.0000000000000000        0.0000000000000000     
  0.55555555999999995        0.0000000000000000        0.0000000000000000     
  0.66666667000000002        0.0000000000000000        0.0000000000000000     
  0.77777777999999997        0.0000000000000000        0.0000000000000000     
  0.88888889000000004        0.0000000000000000        0.0000000000000000     
   1.0000000000000000       0.11111111000000000        0.0000000000000000     
   1.0000000000000000       0.22222222000000000        0.0000000000000000     
   1.0000000000000000       0.33333332999999998        0.0000000000000000     
   1.0000000000000000       0.44444444000000000        0.0000000000000000     
   1.0000000000000000       0.55555555999999995        0.0000000000000000     
   1.0000000000000000       0.66666667000000002        0.0000000000000000     
   1.0000000000000000       0.77777777999999997        0.0000000000000000     
   1.0000000000000000       0.88888889000000004        0.0000000000000000     
  0.88888889000000004        1.0000000000000000        0.0000000000000000     
  0.77777777999999997        1.0000000000000000        0.0000000000000000     
  0.66666667000000002        1.0000000000000000        0.0000000000000000     
  0.55555555999999995        1.0000000000000000        0.0000000000000000     
  0.44444444000000000        1.0000000000000000        0.0000000000000000     
  0.33333332999999998        1.0000000000000000        0.0000000000000000     
  0.22222222000000000        1.0000000000000000        0.0000000000000000     
  0.11111111000000000        1.0000000000000000        0.0000000000000000     
   0.0000000000000000       0.11111111000000000        0.0000000000000000     
   0.0000000000000000       0.22222222000000000        0.0000000000000000     
[...]
 CELL_DATA         354
 SCALARS C float
 LOOKUP_TABLE default
    0.74252068514027091961E+00
    0.11471539696957229193E+01
    0.51937553604340347402E+00
    0.59889846368623000927E+00
    0.85994525744375871490E+00
    0.97490973269636671539E+00
    0.12362863013808067514E+01
    0.11079337629589105507E+01
    0.13430232044868004593E+01
    0.14129560812155876892E+01
    0.14771028441496152350E+01
    0.14633008258952664438E+01
    0.14867881617899212365E+01
    0.14906691430839067447E+01
    0.14830810947704644587E+01
    0.14875061742421400446E+01
    0.14545735221193967224E+01
    0.14091270216376827751E+01
    0.12603997053246787097E+01
    0.13339693841459248080E+01
    0.12175651988560645123E+01
    0.12548847228866062409E+01
    0.13382418302064817972E+01
    0.12992784725565855730E+01
    0.13475743644998792181E+01
    0.13274643225548685699E+01
    0.12580315303276834449E+01
    0.12961707866905431974E+01
    0.11853962998210167967E+01
    0.10803267162935787926E+01
    0.85780879758959871495E+00
    0.97261417440924735622E+00
    0.74678058212471420951E+00
    0.63486871020341006933E+00
    0.52207420914997415551E+00
    0.56617387328209500819E+00
    0.51319667270886992760E+00
    0.52078687174887294820E+00
    0.56545901697371991901E+00
    0.53171111730761499992E+00
    0.58013852545413013839E+00
    0.58334645526979667096E+00
    0.60211402060353458321E+00
    0.58859185521497292548E+00
    0.59074167359332363514E+00
    0.54843391089432769192E+00
    0.52186262385285830945E+00
    0.53276755237306172575E+00
    0.51708087577506556265E+00
    0.50780500347625912028E+00
    0.54727981257068747389E+00
    0.52842101277743958043E+00
    0.78355880248204157201E+00
    0.80692366530165771099E+00
    0.88957567400111114964E+00
    0.84135079059281270286E+00
    0.89806880042831060962E+00
    0.86854084189260560844E+00
    0.81614858250116550931E+00
    0.84274935752605162342E+00
    0.76639010558494724545E+00
    0.68651001612209294755E+00
    0.57229041456613449768E+00
    0.62936653685320387286E+00
    0.53715385116402569743E+00
    0.50591866560702880573E+00
    0.53689975843351134266E+00
    0.51792936838666614463E+00
    0.14362625896566680872E+01
    0.14890720885375974269E+01
    0.14863305319536614935E+01
    0.14736403833957298914E+01
    0.14936663715793554452E+01
    0.14870832079801656889E+01
    0.14674588978970259934E+01
    0.14246728867897440196E+01
    0.14525792168919668956E+01
    0.14914893131339583832E+01
    0.12189035389425078026E+01
    0.13100830527992175512E+01
    0.10741725480647978941E+01
    0.11585712304504971470E+01
    0.13179740625583100666E+01
    0.11212354495059622117E+01
    0.14457467922543045802E+01
    0.13226634100543750439E+01
    0.11985002887006599437E+01
    0.14153726373981334596E+01
    0.14367614510466160116E+01
    0.13842925722988361770E+01
    0.12650625750636208533E+01
    0.11265813450298451937E+01
    0.10889047878424891191E+01
    0.91830709060158210999E+00
    0.88525623613739390372E+00
    0.98650561088822574796E+00
    0.11634962236495971499E+01
    0.14236103573666936128E+01
    0.14889603846558823186E+01
    0.14543536551569953286E+01
    0.14908885663336752803E+01
    0.14215325394006115278E+01
    0.14804887683262832887E+01
    0.14111866319399652969E+01
    0.14052145734647014663E+01
    0.12981102269057385179E+01
    0.12987451825325628807E+01
    0.14289604950963732399E+01
    0.12290319109085201532E+01
    0.11539277800900267223E+01
    0.89097140810432406965E+00
    0.11437241842944485537E+01
    0.99892413937188928585E+00
    0.98209866776995624615E+00
    0.13961389797889169895E+01
    0.11026252410053078989E+01
    0.12239255661402099751E+01
    0.13501868007695994045E+01
    0.13500866890334084491E+01
    0.11284023738465742692E+01
    0.12222200092628352497E+01
    0.70351685356147297679E+00
    0.81974571696602971382E+00
    0.62316760437707774400E+00
    0.84061964350563467274E+00
    0.91074794412682025246E+00
    0.63399113403318752002E+00
    0.68776675439208045937E+00
    0.11354485090218100485E+01
    0.12897974293980740690E+01
    0.10503252051974352188E+01
    0.13398679477712893693E+01
    0.12784747985098439127E+01
    0.10544368276910172089E+01
    0.11571978116571579598E+01
    0.14704566676419852378E+01
    0.14932279346016332777E+01
    0.14137983813559507063E+01
    0.14922189394840894572E+01
    0.14796401129534662022E+01
    0.14599124213087555368E+01
    0.14292482913902193609E+01
    0.58641587484088253390E+00
    0.56161682329204798414E+00
    0.51885244892208282064E+00
    0.67090136222022311863E+00
    0.65258698913575796663E+00
    0.52214705611481271319E+00
    0.52818248240026333118E+00
    0.14797896971058275284E+01
    0.14419091215425068331E+01
    0.13889624836531619945E+01
    0.14697569072338243501E+01
    0.13489293099995012248E+01
    0.14767128011816068600E+01
    0.14631345752522286752E+01
    0.14935630404913364799E+01
    0.14894190537893905457E+01
    0.14587602342285324042E+01
    0.14919240336352244114E+01
    0.13051727980925413863E+01
    0.14620307692827263502E+01
    0.14350844972106950870E+01
    0.14090159202535017524E+01
    0.13457433655633257441E+01
    0.75253025179029875424E+00
    0.87745976815201898180E+00
    0.75040322323297004026E+00
    0.86616995259631401893E+00
    0.93619171765611419733E+00
    0.14441410723030192464E+01
    0.14882058443790571189E+01
    0.14740960121873882827E+01
    0.14869181092623346974E+01
    0.14910969244929641597E+01
    0.11422732477103050286E+01
    0.12771281384864632269E+01
    0.13111030496603608420E+01
    0.11002954365783947921E+01
    0.12007648142429818705E+01
    0.14839287252325639166E+01
    0.14788888740935826061E+01
    0.14907312099140248574E+01
    0.14630633969478556988E+01
    0.14903553774072422211E+01
    0.10564883607434296664E+01
    0.12997093413470328649E+01
    0.11491624855822597517E+01
    0.11592286292972948658E+01
    0.12826821653508220233E+01
    0.14432170247349118686E+01
    0.14718559540934679220E+01
    0.14275057557558805676E+01
    0.14713163052884721260E+01
    0.13577768886278502869E+01
    0.73025261818219411314E+00
    0.99308657776309816612E+00
    0.83221957154464931694E+00
    0.79433856687633419558E+00
    0.93471499202286967289E+00
    0.71679413429311511496E+00
    0.63303405028544790234E+00
    0.73179193780584395057E+00
    0.63976256225452443616E+00
    0.81042753871230699403E+00
    0.12140630099052318602E+01
    0.14090169381561179485E+01
    0.13227603590586372029E+01
    0.14304647716458283035E+01
    0.14066750578014439732E+01
    0.13038909730363581474E+01
    0.12911583437826872345E+01
    0.14174210828328288603E+01
    0.13931972917910777632E+01
    0.14434624925222037106E+01
    0.14920229532038824516E+01
    0.14498416353773786458E+01
    0.14504035249902664795E+01
    0.14919925620243963404E+01
    0.12045641149002119796E+01
    0.11436426999281468220E+01
    0.11372847684070661600E+01
    0.13493870006296446729E+01
    0.10809582103157369115E+01
    0.12571321051385186962E+01
    0.63184558863654605165E+00
    0.68327575587057343132E+00
    0.83397075862101055499E+00
    0.81344029367221537541E+00
    0.82844240070083574601E+00
    0.95226162480173148772E+00
    0.97630052849022952444E+00
    0.10699175679662229488E+01
    0.12322612844476861227E+01
    0.13737017863012772612E+01
    0.13494844391137006401E+01
    0.14266374615197565667E+01
    0.14859933680662487099E+01
    0.14887393592412787591E+01
    0.13682412323884070027E+01
    0.14742254157095024958E+01
    0.13127258527636480601E+01
    0.10593811678280182775E+01
    0.11170940547232666162E+01
    0.14776379010107079104E+01
    0.14892227862404097127E+01
    0.79138380585434575654E+00
    0.65730997427880044626E+00
    0.60371300959804041764E+00
    0.12069710648765570316E+01
    0.10113844667027602764E+01
    0.98993254724778334541E+00
    0.14047260524085527500E+01
    0.14307193061657930144E+01
    0.12276974002112692741E+01
    0.14833192706948157280E+01
    0.14258922801192135399E+01
    0.14061292819375768026E+01
    0.98343856130054907450E+00
    0.10083131530123523589E+01
    0.74463518514461979336E+00
    0.14761343940997906365E+01
    0.14954527861664286270E+01
    0.14696850236431091563E+01
    0.69440714832479411012E+00
    0.66940008758516256204E+00
    0.54159591952269781068E+00
    0.64358697028810873952E+00
    0.56699922744195507818E+00
    0.52006361888745300526E+00
    0.14780955925629013503E+01
    0.13642262603181882774E+01
    0.14682025371501543631E+01
    0.14844993543079501030E+01
    0.12494150617480888066E+01
    0.14711471834252674018E+01
    0.14080092990005135256E+01
    0.13840650183813285601E+01
    0.97454450822069493832E+00
    0.13075350073310552101E+01
    0.12273921635417945897E+01
    0.10865480298149088334E+01
    0.14392254767126617665E+01
    0.14079589098720686202E+01
    0.12737654515584191373E+01
    0.14834308106739675370E+01
    0.14660445816879632552E+01
    0.92054455304306292973E+00
    0.10097729410278319939E+01
    0.55043820017006850343E+00
    0.58540222822793619439E+00
    0.13800320979675664290E+01
    0.13452893518560760100E+01
    0.50677359273564737130E+00
    0.50644779559504482513E+00
    0.13959411040819005301E+01
    0.10038300587513486750E+01
    0.99486914292465344900E+00
    0.14646078459820657258E+01
    0.77312230649199087384E+00
    0.13809698326564958659E+01
    0.13403140288056412111E+01
    0.85075502651143897204E+00
    0.14747455174494290553E+01
    0.13685105580718619489E+01
    0.14772583248531445665E+01
    0.12950361676800012933E+01
    0.14701529438969920260E+01
    0.77769478564273608612E+00
    0.87463058039493524198E+00
    0.12503430380399669364E+01
    0.14479145177861476590E+01
    0.14896200129697894088E+01
    0.10789449342771963991E+01
    0.14889687735717358485E+01
    0.14555264240991241387E+01
    0.12015878988123787074E+01
    0.98309313206643489380E+00
    0.72143719448910426095E+00
    0.65548900405825871740E+00
    0.11036081288154337976E+01
    0.10630849306663536780E+01
    0.51881624789778091333E+00
    0.51700316113299815690E+00
    0.63765575016023279264E+00
    0.62589433989103726574E+00
    0.97746480440786975841E+00
    0.12292969310273518246E+01
    0.13941404271836577156E+01
    0.14661831932683306867E+01
    0.14743313593516917948E+01
    0.14361285906407967872E+01
    0.13138104610640291003E+01
    0.11912842419012479311E+01
    0.12526519752302580635E+01
    0.12250754162914438972E+01
    0.11231176864078467048E+01
    0.94240965203185222965E+00
    0.73557449540813724109E+00
    0.56724136184626361423E+00
    0.50483160053185538452E+00
    0.52015449307223771136E+00
    0.53036120473252967855E+00
    0.52961816518772497631E+00
    0.51048227364837517328E+00
    0.50569367616629490314E+00
    0.53971378405227665720E+00
    0.73087039148021359924E+00
    0.77597148994256537335E+00
    0.75414565410151335190E+00
    0.69001584560038897731E+00
    0.59401398448968201205E+00
    0.52275722705038896176E+00
    0.52213135257820364465E+00
