# vtk DataFile Version 3.0
LAPLACIEN  2D
ASCII
DATASET UNSTRUCTURED_GRID
 POINTS         391  float
  0.50371505999999999       0.50367786999999997        0.0000000000000000     
  0.29013556000000001       0.29014535000000002        0.0000000000000000     
  0.70165584999999997       0.71206597999999999        0.0000000000000000     
  0.70304188999999995       0.30176619999999998        0.0000000000000000     
  0.30920671999999999       0.71149227999999998        0.0000000000000000     
  0.79044983999999996       0.49884783999999999        0.0000000000000000     
  0.49102621000000002       0.20968644000000000        0.0000000000000000     
  0.49912957000000002       0.77208717000000004        0.0000000000000000     
  0.21724072999999999       0.48989389000000000        0.0000000000000000     
  0.83255933999999998       0.83046598000000005        0.0000000000000000     
  0.16646774000000000       0.17015694000000001        0.0000000000000000     
  0.83054514999999995       0.16736480000000001        0.0000000000000000     
  0.16953130999999999       0.83265739000000005        0.0000000000000000     
  0.42166445000000002       0.36345201999999999        0.0000000000000000     
  0.64462200999999997       0.56347807999999999        0.0000000000000000     
  0.35324633999999999       0.56311191000000005        0.0000000000000000     
  0.65456411000000003       0.84856860999999995        0.0000000000000000     
  0.35141477999999998       0.15563974000000000        0.0000000000000000     
  0.15290967000000000       0.35206625000000003        0.0000000000000000     
  0.82942241000000005       0.34936866000000000        0.0000000000000000     
  0.84390527000000004       0.64441694999999999        0.0000000000000000     
  0.63699174999999997       0.14284276000000001        0.0000000000000000     
  0.15620682999999999       0.64648446999999998        0.0000000000000000     
  0.36426062999999997       0.85756310999999996        0.0000000000000000     
  0.63489340999999999       0.40519052000000000        0.0000000000000000     
  0.52518872999999999       0.65957078000000002        0.0000000000000000     
  0.32158959999999998       0.42298103999999997        0.0000000000000000     
  0.58861710000000000       0.31711036999999997        0.0000000000000000     
  0.42078418000000001       0.69497151999999995        0.0000000000000000     
  0.48608786999999998       0.89334152000000000        0.0000000000000000     
   9.7084320000000002E-002  0.50000000000000000        0.0000000000000000     
  0.90291568000000000       0.50000000000000000        0.0000000000000000     
  0.51392453000000005       0.10668648999999999        0.0000000000000000     
  0.59792566999999996       0.73122754000000001        0.0000000000000000     
  0.74510058999999995       0.41124730999999998        0.0000000000000000     
  0.73212551999999997       0.90191560000000004        0.0000000000000000     
   9.7784830000000003E-002  0.26957329000000002        0.0000000000000000     
  0.26711221000000002        9.8671499999999995E-002   0.0000000000000000     
  0.90191560000000004       0.26787448000000003        0.0000000000000000     
  0.90118569000000004       0.73039821000000005        0.0000000000000000     
  0.73122947000000005        9.8017859999999998E-002   0.0000000000000000     
   9.8084400000000002E-002  0.73212551999999997        0.0000000000000000     
  0.26957329000000002       0.90221516999999996        0.0000000000000000     
  0.39283522999999998       0.25360379000000000        0.0000000000000000     
  0.74480864000000002       0.60495284999999999        0.0000000000000000     
  0.25505132000000003       0.60593640999999998        0.0000000000000000     
  0.52159297999999998       0.40671636000000000        0.0000000000000000     
  0.40768852000000000       0.47699891000000000        0.0000000000000000     
   9.1467049999999994E-002   9.1876959999999994E-002   0.0000000000000000     
  0.90842484999999995       0.90819225000000003        0.0000000000000000     
  0.90820104999999995        9.1566729999999999E-002   0.0000000000000000     
   9.1807449999999999E-002  0.90843574000000005        0.0000000000000000     
  0.27098960000000000       0.20527094000000001        0.0000000000000000     
  0.73457293999999995       0.79835387000000002        0.0000000000000000     
  0.79817773000000003       0.25713470999999999        0.0000000000000000     
  0.20747797000000001       0.72863946000000002        0.0000000000000000     
  0.20175195000000001       0.27583914999999998        0.0000000000000000     
  0.79603889000000005       0.72159035000000005        0.0000000000000000     
  0.71761666000000002       0.19748431999999999        0.0000000000000000     
  0.28462607000000001       0.80251899999999998        0.0000000000000000     
  0.69134598999999997       0.49261972999999998        0.0000000000000000     
  0.44720578999999999       0.58582935999999997        0.0000000000000000     
  0.24242269999999999       0.37228174000000003        0.0000000000000000     
  0.38265623999999998       0.93072131999999996        0.0000000000000000     
  0.60971754000000000       0.91988369000000003        0.0000000000000000     
   7.9163609999999995E-002  0.60979116000000000        0.0000000000000000     
  0.92010649000000000       0.61081183999999999        0.0000000000000000     
  0.61954008999999999        7.1530830000000004E-002   0.0000000000000000     
  0.91882012999999996       0.38917363999999999        0.0000000000000000     
  0.39086346000000000        8.0652249999999995E-002   0.0000000000000000     
   7.9183480000000001E-002  0.38966213000000000        0.0000000000000000     
  0.59114111999999996       0.49294315000000000        0.0000000000000000     
  0.63337980999999999       0.64485914000000000        0.0000000000000000     
  0.50012352000000004       0.29676539000000002        0.0000000000000000     
  0.82552601000000003       0.92753492000000004        0.0000000000000000     
  0.92774772999999999       0.82498556999999995        0.0000000000000000     
   7.1970870000000006E-002  0.17510291000000000        0.0000000000000000     
  0.17422821999999999        7.2635640000000001E-002   0.0000000000000000     
  0.82510813000000005        7.2134840000000006E-002   0.0000000000000000     
  0.92754665000000003       0.17446275999999999        0.0000000000000000     
  0.17501022999999999       0.92789951999999998        0.0000000000000000     
   7.2464680000000004E-002  0.82554053000000005        0.0000000000000000     
  0.30731587999999999       0.50885354999999999        0.0000000000000000     
  0.59033407999999998       0.22171178999999999        0.0000000000000000     
  0.40109191999999999       0.78725542000000004        0.0000000000000000     
  0.35420917000000002       0.63754104000000000        0.0000000000000000     
  0.15983976999999999       0.56665573000000002        0.0000000000000000     
  0.84108459999999996       0.56757886999999996        0.0000000000000000     
  0.83902096000000004       0.43344338999999998        0.0000000000000000     
  0.43230028999999998       0.16004268999999999        0.0000000000000000     
  0.57536027999999995       0.83041363999999995        0.0000000000000000     
  0.15771898000000001       0.42747892999999998        0.0000000000000000     
  0.34021692999999997       0.34221559000000001        0.0000000000000000     
  0.56002271999999997       0.57501117999999996        0.0000000000000000     
  0.65344329000000001       0.78147597999999996        0.0000000000000000     
   0.0000000000000000        0.0000000000000000        0.0000000000000000     
   1.0000000000000000        0.0000000000000000        0.0000000000000000     
   1.0000000000000000        1.0000000000000000        0.0000000000000000     
   0.0000000000000000        1.0000000000000000        0.0000000000000000     
  0.11111111000000000        0.0000000000000000        0.0000000000000000     
  0.22222222000000000        0.0000000000000000        0.0000000000000000     
  0.33333332999999998        0.0000000000000000        0.0000000000000000     
  0.44444444000000000        0.0000000000000000        0.0000000000000000     
  0.55555555999999995        0.0000000000000000        0.0000000000000000     
  0.66666667000000002        0.0000000000000000        0.0000000000000000     
  0.77777777999999997        0.0000000000000000        0.0000000000000000     
  0.88888889000000004        0.0000000000000000        0.0000000000000000     
   1.0000000000000000       0.11111111000000000        0.0000000000000000     
   1.0000000000000000       0.22222222000000000        0.0000000000000000     
   1.0000000000000000       0.33333332999999998        0.0000000000000000     
   1.0000000000000000       0.44444444000000000        0.0000000000000000     
   1.0000000000000000       0.55555555999999995        0.0000000000000000     
   1.0000000000000000       0.66666667000000002        0.0000000000000000     
   1.0000000000000000       0.77777777999999997        0.0000000000000000     
   1.0000000000000000       0.88888889000000004        0.0000000000000000     
  0.88888889000000004        1.0000000000000000        0.0000000000000000     
  0.77777777999999997        1.0000000000000000        0.0000000000000000     
  0.66666667000000002        1.0000000000000000        0.0000000000000000     
  0.55555555999999995        1.0000000000000000        0.0000000000000000     
  0.44444444000000000        1.0000000000000000        0.0000000000000000     
  0.33333332999999998        1.0000000000000000        0.0000000000000000     
  0.22222222000000000        1.0000000000000000        0.0000000000000000     
  0.11111111000000000        1.0000000000000000        0.0000000000000000     
   0.0000000000000000       0.11111111000000000        0.0000000000000000     
   0.0000000000000000       0.22222222000000000        0.0000000000000000     
[...]
 CELL_DATA         354
 SCALARS C float
 LOOKUP_TABLE default
    0.77265558003014600530E+00
    0.11439558266440896794E+01
    0.55635205066838699928E+00
    0.62427900950484616072E+00
    0.88212371809545775392E+00
    0.98870656010264601488E+00
    0.11850759463178059949E+01
    0.11079661601008519156E+01
    0.12060718104693328723E+01
    0.12035738291030027014E+01
    0.11820027263065713274E+01
    0.12019301592727702488E+01
    0.11900143070413369273E+01
    0.11918597587297581342E+01
    0.11949462833691668617E+01
    0.11872038047013049322E+01
    0.11883950902578666042E+01
    0.12048758103145669196E+01
    0.11896450637254805116E+01
    0.11913579714042525914E+01
    0.11833235837222975118E+01
    0.12035121613362498305E+01
    0.12103811594813322916E+01
    0.12151430849673008350E+01
    0.12086726448102049769E+01
    0.12092518694729017525E+01
    0.11999181607040021458E+01
    0.12039551073165990491E+01
    0.11780556326134496992E+01
    0.10876805048083384442E+01
    0.88172775744030262857E+00
    0.98831206710303254326E+00
    0.77653957046837018829E+00
    0.67080449042878231847E+00
    0.56149181871504783015E+00
    0.60444117168603916923E+00
    0.55184583804140463492E+00
    0.55997692858903558299E+00
    0.60401627343946251436E+00
    0.57136500500942699610E+00
    0.61874840846753720314E+00
    0.62174878745008754777E+00
    0.63978623748622298617E+00
    0.62686656296915854725E+00
    0.62849369155686840571E+00
    0.58814853925439958271E+00
    0.56171192614427178924E+00
    0.57266575408020825577E+00
    0.55570105720917717385E+00
    0.54490288224793603788E+00
    0.57849467223325923282E+00
    0.56262853038306537279E+00
    0.81161099575976247689E+00
    0.83390886042918099808E+00
    0.91157266608911857730E+00
    0.86675997914178870563E+00
    0.92002005870781622399E+00
    0.89230934130540617844E+00
    0.84275365341742036751E+00
    0.86771519406967845267E+00
    0.79546933183356738351E+00
    0.72029388846703223948E+00
    0.61137384001180472559E+00
    0.66562964733695362263E+00
    0.57635805468985146227E+00
    0.54490792992368497494E+00
    0.57004158097299306718E+00
    0.55414256195557165530E+00
    0.11803338423636591248E+01
    0.12045527419748118803E+01
    0.11917936814401497436E+01
    0.11956933523586867896E+01
    0.11937857990101976569E+01
    0.11861469191609694818E+01
    0.12034275696961509450E+01
    0.12054499377782543768E+01
    0.12111744311479539782E+01
    0.12044169796415480356E+01
    0.11747153155307112904E+01
    0.12085890137529509136E+01
    0.10747652596094092736E+01
    0.11319918452491388727E+01
    0.12029263543171435646E+01
    0.11186352990752650438E+01
    0.11813372173954586053E+01
    0.11855173551297604195E+01
    0.11459948405026603169E+01
    0.11858546169599162301E+01
    0.11818969106841494821E+01
    0.11926103560479470733E+01
    0.11796355134040932278E+01
    0.11144339177431075161E+01
    0.10869511422320266014E+01
    0.93365560902778677033E+00
    0.90359462066887663578E+00
    0.99722184256149437598E+00
    0.11447277124978949558E+01
    0.12079315208484093791E+01
    0.11881975962121138490E+01
    0.12044972609096036287E+01
    0.11998060834949324516E+01
    0.12106036936611006549E+01
    0.12114383371146015822E+01
    0.11937828753191097597E+01
    0.11900907417592534454E+01
    0.11658755328514216476E+01
    0.11650956481877858817E+01
    0.11848769360629183289E+01
    0.11809244274506474071E+01
    0.11293927506236458580E+01
    0.90750285835927568812E+00
    0.11268756779767212794E+01
    0.10074418499867607846E+01
    0.99200847247243217897E+00
    0.12102753135370043491E+01
    0.11003140045615138476E+01
    0.11742611335258483773E+01
    0.12031669188137454896E+01
    0.12088356025185722498E+01
    0.11263407875640902844E+01
    0.11631920031990954367E+01
    0.73513755617140030818E+00
    0.84386211454265536158E+00
    0.65857379507655655626E+00
    0.86196244188422577182E+00
    0.92686565949049171120E+00
    0.66944256556236170219E+00
    0.72032209299593086271E+00
    0.11234601989310428749E+01
    0.11897294722677658196E+01
    0.10567489290058784679E+01
    0.11973821591347957316E+01
    0.11903860316654224505E+01
    0.10621488143471131682E+01
    0.11309805097692262610E+01
    0.12074901777713560325E+01
    0.12030156998096863674E+01
    0.12049480839059143467E+01
    0.12007422501953068927E+01
    0.11856481769087729994E+01
    0.12093201584603561205E+01
    0.12083828093565440742E+01
    0.62440601246735438767E+00
    0.60075580846157206061E+00
    0.55779774050188712931E+00
    0.70366074204401884984E+00
    0.68670534101520064318E+00
    0.56192272047974578530E+00
    0.56804510232944549486E+00
    0.11852969060171552051E+01
    0.12024422154856972966E+01
    0.11796369124077343837E+01
    0.11939257792860455965E+01
    0.11697049306202345065E+01
    0.11925647977659188381E+01
    0.12065836623402752537E+01
    0.12015931509415100908E+01
    0.11862096249980684792E+01
    0.12078739027533158534E+01
    0.12023568281773451272E+01
    0.11974202195052039421E+01
    0.11962161221585887461E+01
    0.12063179738538616359E+01
    0.12169383752391997877E+01
    0.12043646846036615283E+01
    0.77969104001325439945E+00
    0.89471120457564856654E+00
    0.77741548340742006040E+00
    0.88531238438321047113E+00
    0.94969695104168438959E+00
    0.12051096700811636531E+01
    0.11906165210933215004E+01
    0.12032134639591955949E+01
    0.12160352608099991301E+01
    0.11956338882226231757E+01
    0.11321119812406656990E+01
    0.11989285433623908528E+01
    0.12022235721798411046E+01
    0.11001169614937751362E+01
    0.11560611416147164032E+01
    0.11992408172749153827E+01
    0.12088263417202096406E+01
    0.12064133559437615340E+01
    0.12055533814902290590E+01
    0.12061788169064289189E+01
    0.10584512395900909087E+01
    0.12097467431737309873E+01
    0.11262608149293729110E+01
    0.11399758464885865195E+01
    0.12004403675138879404E+01
    0.12054527916952249011E+01
    0.11918185069188538261E+01
    0.12011669655641288301E+01
    0.11926017201026162251E+01
    0.11702090696783198354E+01
    0.75868152644643904736E+00
    0.10031980368646131740E+01
    0.85477639554230222529E+00
    0.81828962323470899598E+00
    0.94919652227164830194E+00
    0.74854732124087275391E+00
    0.66798171340723899725E+00
    0.76158561515618139470E+00
    0.67523080380150701796E+00
    0.83590053550464915588E+00
    0.11417713824034405601E+01
    0.11863248800487298240E+01
    0.11879406910377203754E+01
    0.11800708578941929705E+01
    0.11839270704633066966E+01
    0.11970652546350644130E+01
    0.12028024791139872995E+01
    0.12111107191217365120E+01
    0.12126351672005517557E+01
    0.12058148443627325630E+01
    0.12065813935232958531E+01
    0.12195763413184042001E+01
    0.12174540186320954582E+01
    0.12062433635945990495E+01
    0.11482257857157704972E+01
    0.11162383914155105114E+01
    0.11144197988245929665E+01
    0.11963104788240590537E+01
    0.10825906227982862173E+01
    0.11736147589214491749E+01
    0.66783672313677400201E+00
    0.71615421762984832199E+00
    0.85660238669426391755E+00
    0.83684862869593223955E+00
    0.85167975130219020219E+00
    0.96729711161658127327E+00
    0.98846272378223221100E+00
    0.10705183566719282950E+01
    0.11863481515289209245E+01
    0.12179310158177467649E+01
    0.12079771867982969091E+01
    0.12105636616560473406E+01
    0.12034147488835613693E+01
    0.11928914229597886720E+01
    0.11753544551791983430E+01
    0.12014745533501556274E+01
    0.12014861799305935897E+01
    0.10623328064560044748E+01
    0.11148929972528194288E+01
    0.11994113840539721849E+01
    0.11881581564287435615E+01
    0.81600966591587764665E+00
    0.69127233987838609952E+00
    0.64080333828369384630E+00
    0.11753883783464709190E+01
    0.10226133548560731867E+01
    0.10037433168586917809E+01
    0.12128320984509446401E+01
    0.12139303529915135282E+01
    0.11883041840437917891E+01
    0.11955841414954999635E+01
    0.12187630250015801803E+01
    0.12149411186002470053E+01
    0.99332563605752988156E+00
    0.10168724936627262512E+01
    0.77384905198244968716E+00
    0.11924981609130262949E+01
    0.11962091912502741398E+01
    0.11985431829988166808E+01
    0.72565406089559625347E+00
    0.70231498406100079102E+00
    0.58093853113251536779E+00
    0.67800269301374571640E+00
    0.60555873989445174743E+00
    0.55986995208350742725E+00
    0.11777746033729419306E+01
    0.11747519668901600376E+01
    0.11985491168240842708E+01
    0.11988433587168458860E+01
    0.11929861691234866505E+01
    0.11914119409649441828E+01
    0.12190060451638640160E+01
    0.12110092090281483479E+01
    0.98594709596048890621E+00
    0.11987980634868822261E+01
    0.11751149675123122584E+01
    0.10879331162183238924E+01
    0.11814027451774689048E+01
    0.11882787340865654802E+01
    0.11726296292223026274E+01
    0.12007212474339796771E+01
    0.11983230525933228350E+01
    0.93861272932787120915E+00
    0.10195271978281836844E+01
    0.58936258865841406607E+00
    0.62274579352764469764E+00
    0.12038021590844565356E+01
    0.12100684327752637692E+01
    0.54498171659412075751E+00
    0.54510707568868943529E+00
    0.12100331157096879675E+01
    0.10111749437044970090E+01
    0.10025298433983640400E+01
    0.11942843603564876620E+01
    0.79943378967403666557E+00
    0.12109135965503821097E+01
    0.11847541238392311769E+01
    0.87305422295534607091E+00
    0.11962085315813872910E+01
    0.12015732802440635130E+01
    0.12047855579192401354E+01
    0.11936232240480335598E+01
    0.11994622541325761222E+01
    0.80319614365088254360E+00
    0.89329065622968972793E+00
    0.11882192937013398293E+01
    0.12149599852025354529E+01
    0.11940106337397236036E+01
    0.10805858599762534489E+01
    0.11838924612086429988E+01
    0.12085915143720651344E+01
    0.11497250087605381808E+01
    0.99297825135875661395E+00
    0.75232266833799776862E+00
    0.69141528266672891423E+00
    0.11059701274102033963E+01
    0.10743756672205488911E+01
    0.55530230495315746619E+00
    0.55240296623969897816E+00
    0.65859088777905749890E+00
    0.64886633320005604464E+00
    0.99201278012114779692E+00
    0.11859481604218824469E+01
    0.12683751030699008666E+01
    0.12967554825612512825E+01
    0.13021075596267799312E+01
    0.12830717969327070094E+01
    0.12323045598734481132E+01
    0.11804143197135317234E+01
    0.11991787987684658923E+01
    0.11915688470934688858E+01
    0.11273416783056802171E+01
    0.96227485225790021506E+00
    0.76710255660022697022E+00
    0.60547415871378285068E+00
    0.54400281618127632743E+00
    0.56066542864262514101E+00
    0.57106501711083790251E+00
    0.57023812862609635221E+00
    0.55068869602965730969E+00
    0.54379218513019589309E+00
    0.57154812975603896952E+00
    0.76344595777732460196E+00
    0.80658979536272523703E+00
    0.78593832510491989929E+00
    0.72476492094334843408E+00
    0.63266015725288238247E+00
    0.56263981851461730699E+00
    0.55711839975547006176E+00
