# vtk DataFile Version 3.0
LAPLACIEN  2D
ASCII
DATASET UNSTRUCTURED_GRID
 POINTS         391  float
  0.50371505999999999       0.50367786999999997        0.0000000000000000     
  0.29013556000000001       0.29014535000000002        0.0000000000000000     
  0.70165584999999997       0.71206597999999999        0.0000000000000000     
  0.70304188999999995       0.30176619999999998        0.0000000000000000     
  0.30920671999999999       0.71149227999999998        0.0000000000000000     
  0.79044983999999996       0.49884783999999999        0.0000000000000000     
  0.49102621000000002       0.20968644000000000        0.0000000000000000     
  0.49912957000000002       0.77208717000000004        0.0000000000000000     
  0.21724072999999999       0.48989389000000000        0.0000000000000000     
  0.83255933999999998       0.83046598000000005        0.0000000000000000     
  0.16646774000000000       0.17015694000000001        0.0000000000000000     
  0.83054514999999995       0.16736480000000001        0.0000000000000000     
  0.16953130999999999       0.83265739000000005        0.0000000000000000     
  0.42166445000000002       0.36345201999999999        0.0000000000000000     
  0.64462200999999997       0.56347807999999999        0.0000000000000000     
  0.35324633999999999       0.56311191000000005        0.0000000000000000     
  0.65456411000000003       0.84856860999999995        0.0000000000000000     
  0.35141477999999998       0.15563974000000000        0.0000000000000000     
  0.15290967000000000       0.35206625000000003        0.0000000000000000     
  0.82942241000000005       0.34936866000000000        0.0000000000000000     
  0.84390527000000004       0.64441694999999999        0.0000000000000000     
  0.63699174999999997       0.14284276000000001        0.0000000000000000     
  0.15620682999999999       0.64648446999999998        0.0000000000000000     
  0.36426062999999997       0.85756310999999996        0.0000000000000000     
  0.63489340999999999       0.40519052000000000        0.0000000000000000     
  0.52518872999999999       0.65957078000000002        0.0000000000000000     
  0.32158959999999998       0.42298103999999997        0.0000000000000000     
  0.58861710000000000       0.31711036999999997        0.0000000000000000     
  0.42078418000000001       0.69497151999999995        0.0000000000000000     
  0.48608786999999998       0.89334152000000000        0.0000000000000000     
   9.7084320000000002E-002  0.50000000000000000        0.0000000000000000     
  0.90291568000000000       0.50000000000000000        0.0000000000000000     
  0.51392453000000005       0.10668648999999999        0.0000000000000000     
  0.59792566999999996       0.73122754000000001        0.0000000000000000     
  0.74510058999999995       0.41124730999999998        0.0000000000000000     
  0.73212551999999997       0.90191560000000004        0.0000000000000000     
   9.7784830000000003E-002  0.26957329000000002        0.0000000000000000     
  0.26711221000000002        9.8671499999999995E-002   0.0000000000000000     
  0.90191560000000004       0.26787448000000003        0.0000000000000000     
  0.90118569000000004       0.73039821000000005        0.0000000000000000     
  0.73122947000000005        9.8017859999999998E-002   0.0000000000000000     
   9.8084400000000002E-002  0.73212551999999997        0.0000000000000000     
  0.26957329000000002       0.90221516999999996        0.0000000000000000     
  0.39283522999999998       0.25360379000000000        0.0000000000000000     
  0.74480864000000002       0.60495284999999999        0.0000000000000000     
  0.25505132000000003       0.60593640999999998        0.0000000000000000     
  0.52159297999999998       0.40671636000000000        0.0000000000000000     
  0.40768852000000000       0.47699891000000000        0.0000000000000000     
   9.1467049999999994E-002   9.1876959999999994E-002   0.0000000000000000     
  0.90842484999999995       0.90819225000000003        0.0000000000000000     
  0.90820104999999995        9.1566729999999999E-002   0.0000000000000000     
   9.1807449999999999E-002  0.90843574000000005        0.0000000000000000     
  0.27098960000000000       0.20527094000000001        0.0000000000000000     
  0.73457293999999995       0.79835387000000002        0.0000000000000000     
  0.79817773000000003       0.25713470999999999        0.0000000000000000     
  0.20747797000000001       0.72863946000000002        0.0000000000000000     
  0.20175195000000001       0.27583914999999998        0.0000000000000000     
  0.79603889000000005       0.72159035000000005        0.0000000000000000     
  0.71761666000000002       0.19748431999999999        0.0000000000000000     
  0.28462607000000001       0.80251899999999998        0.0000000000000000     
  0.69134598999999997       0.49261972999999998        0.0000000000000000     
  0.44720578999999999       0.58582935999999997        0.0000000000000000     
  0.24242269999999999       0.37228174000000003        0.0000000000000000     
  0.38265623999999998       0.93072131999999996        0.0000000000000000     
  0.60971754000000000       0.91988369000000003        0.0000000000000000     
   7.9163609999999995E-002  0.60979116000000000        0.0000000000000000     
  0.92010649000000000       0.61081183999999999        0.0000000000000000     
  0.61954008999999999        7.1530830000000004E-002   0.0000000000000000     
  0.91882012999999996       0.38917363999999999        0.0000000000000000     
  0.39086346000000000        8.0652249999999995E-002   0.0000000000000000     
   7.9183480000000001E-002  0.38966213000000000        0.0000000000000000     
  0.59114111999999996       0.49294315000000000        0.0000000000000000     
  0.63337980999999999       0.64485914000000000        0.0000000000000000     
  0.50012352000000004       0.29676539000000002        0.0000000000000000     
  0.82552601000000003       0.92753492000000004        0.0000000000000000     
  0.92774772999999999       0.82498556999999995        0.0000000000000000     
   7.1970870000000006E-002  0.17510291000000000        0.0000000000000000     
  0.17422821999999999        7.2635640000000001E-002   0.0000000000000000     
  0.82510813000000005        7.2134840000000006E-002   0.0000000000000000     
  0.92754665000000003       0.17446275999999999        0.0000000000000000     
  0.17501022999999999       0.92789951999999998        0.0000000000000000     
   7.2464680000000004E-002  0.82554053000000005        0.0000000000000000     
  0.30731587999999999       0.50885354999999999        0.0000000000000000     
  0.59033407999999998       0.22171178999999999        0.0000000000000000     
  0.40109191999999999       0.78725542000000004        0.0000000000000000     
  0.35420917000000002       0.63754104000000000        0.0000000000000000     
  0.15983976999999999       0.56665573000000002        0.0000000000000000     
  0.84108459999999996       0.56757886999999996        0.0000000000000000     
  0.83902096000000004       0.43344338999999998        0.0000000000000000     
  0.43230028999999998       0.16004268999999999        0.0000000000000000     
  0.57536027999999995       0.83041363999999995        0.0000000000000000     
  0.15771898000000001       0.42747892999999998        0.0000000000000000     
  0.34021692999999997       0.34221559000000001        0.0000000000000000     
  0.56002271999999997       0.57501117999999996        0.0000000000000000     
  0.65344329000000001       0.78147597999999996        0.0000000000000000     
   0.0000000000000000        0.0000000000000000        0.0000000000000000     
   1.0000000000000000        0.0000000000000000        0.0000000000000000     
   1.0000000000000000        1.0000000000000000        0.0000000000000000     
   0.0000000000000000        1.0000000000000000        0.0000000000000000     
  0.11111111000000000        0.0000000000000000        0.0000000000000000     
  0.22222222000000000        0.0000000000000000        0.0000000000000000     
  0.33333332999999998        0.0000000000000000        0.0000000000000000     
  0.44444444000000000        0.0000000000000000        0.0000000000000000     
  0.55555555999999995        0.0000000000000000        0.0000000000000000     
  0.66666667000000002        0.0000000000000000        0.0000000000000000     
  0.77777777999999997        0.0000000000000000        0.0000000000000000     
  0.88888889000000004        0.0000000000000000        0.0000000000000000     
   1.0000000000000000       0.11111111000000000        0.0000000000000000     
   1.0000000000000000       0.22222222000000000        0.0000000000000000     
   1.0000000000000000       0.33333332999999998        0.0000000000000000     
   1.0000000000000000       0.44444444000000000        0.0000000000000000     
   1.0000000000000000       0.55555555999999995        0.0000000000000000     
   1.0000000000000000       0.66666667000000002        0.0000000000000000     
   1.0000000000000000       0.77777777999999997        0.0000000000000000     
   1.0000000000000000       0.88888889000000004        0.0000000000000000     
  0.88888889000000004        1.0000000000000000        0.0000000000000000     
  0.77777777999999997        1.0000000000000000        0.0000000000000000     
  0.66666667000000002        1.0000000000000000        0.0000000000000000     
  0.55555555999999995        1.0000000000000000        0.0000000000000000     
  0.44444444000000000        1.0000000000000000        0.0000000000000000     
  0.33333332999999998        1.0000000000000000        0.0000000000000000     
  0.22222222000000000        1.0000000000000000        0.0000000000000000     
  0.11111111000000000        1.0000000000000000        0.0000000000000000     
   0.0000000000000000       0.11111111000000000        0.0000000000000000     
   0.0000000000000000       0.22222222000000000        0.0000000000000000     
[...]
 CELL_DATA         354
 SCALARS C float
 LOOKUP_TABLE default
    0.74252177379086725661E+00
    0.11471549981913549132E+01
    0.51937576438897703479E+00
    0.59889800478737387213E+00
    0.85994539400337532964E+00
    0.97491006541704161581E+00
    0.12362868878458819211E+01
    0.11079342804756784346E+01
    0.13430234311225988098E+01
    0.14129560052937306658E+01
    0.14771026980860537670E+01
    0.14633007422461548064E+01
    0.14867879089993705222E+01
    0.14906688444077607070E+01
    0.14830808472492840178E+01
    0.14875058322118739351E+01
    0.14545735422199743692E+01
    0.14091271658909712006E+01
    0.12603996747628212205E+01
    0.13339693993146946038E+01
    0.12175657084622639736E+01
    0.12548851176018822606E+01
    0.13382423578707620671E+01
    0.12992790069119042329E+01
    0.13475750219252493611E+01
    0.13274649293914944082E+01
    0.12580321073320341885E+01
    0.12961712812788210858E+01
    0.11853971982459281520E+01
    0.10803275930039435426E+01
    0.85780980202236556398E+00
    0.97261497483141401421E+00
    0.74678174898605420573E+00
    0.63486951472731678603E+00
    0.52207467406880803118E+00
    0.56617449719182888490E+00
    0.51319697893885829476E+00
    0.52078736319935803323E+00
    0.56545981158623948026E+00
    0.53171168968208859518E+00
    0.58013964621066271832E+00
    0.58334751958193442611E+00
    0.60211521768264242294E+00
    0.58859291870814978154E+00
    0.59074262118744480521E+00
    0.54843469285189017093E+00
    0.52186337953983097382E+00
    0.53276843944726237634E+00
    0.51708135343757732905E+00
    0.50780520404579410076E+00
    0.54727978212659456059E+00
    0.52842122009414693729E+00
    0.78355971485597009085E+00
    0.80692448870656130477E+00
    0.88957680162365804222E+00
    0.84135181710201789596E+00
    0.89807029644057545514E+00
    0.86854219802618648494E+00
    0.81614972667085083913E+00
    0.84275047033605021696E+00
    0.76639137600596385358E+00
    0.68651109188020043028E+00
    0.57229148406357666090E+00
    0.62936760441848960124E+00
    0.53715463788874862061E+00
    0.50591906836967159844E+00
    0.53689994930801088202E+00
    0.51792973603701897289E+00
    0.14362621075038892737E+01
    0.14890714164868203984E+01
    0.14863297372791297590E+01
    0.14736398266864350060E+01
    0.14936656996194295211E+01
    0.14870827135432087562E+01
    0.14674582295438063362E+01
    0.14246719770085909396E+01
    0.14525784456279244861E+01
    0.14914886340950210819E+01
    0.12189035425847807304E+01
    0.13100828025215855988E+01
    0.10741722271431881630E+01
    0.11585710032872091890E+01
    0.13179733221020872858E+01
    0.11212358434236482374E+01
    0.14457464422503223389E+01
    0.13226639515334817077E+01
    0.11985033649895435737E+01
    0.14153721914587993336E+01
    0.14367611205652013329E+01
    0.13842919277302134784E+01
    0.12650640027502022544E+01
    0.11265802721612119264E+01
    0.10889040950042969680E+01
    0.91830688862846787668E+00
    0.88525623317564283710E+00
    0.98650533161119491332E+00
    0.11634949479016620799E+01
    0.14236096823120942823E+01
    0.14889598263597301209E+01
    0.14543529877164720343E+01
    0.14908878553709834502E+01
    0.14215321296440088794E+01
    0.14804880215661275766E+01
    0.14111866070426628550E+01
    0.14052146601349639887E+01
    0.12981102477719241861E+01
    0.12987450937371916027E+01
    0.14289599326262831802E+01
    0.12290312644368723838E+01
    0.11539275056813491638E+01
    0.89097061217836692748E+00
    0.11437239373308440982E+01
    0.99892352800016293024E+00
    0.98209856646476823006E+00
    0.13961380468945754352E+01
    0.11026248193791086116E+01
    0.12239250352318673531E+01
    0.13501864273039618780E+01
    0.13500856821367590577E+01
    0.11284027693389382385E+01
    0.12222196609051345639E+01
    0.70351725924013575053E+00
    0.81974603446432159348E+00
    0.62316806206095964882E+00
    0.84061923185860643049E+00
    0.91074754938696156348E+00
    0.63399212903615698167E+00
    0.68776754120929228797E+00
    0.11354484094224668311E+01
    0.12897970274960426362E+01
    0.10503252292452778249E+01
    0.13398669241473513125E+01
    0.12784739036523613542E+01
    0.10544373131603927973E+01
    0.11571978819621764334E+01
    0.14704559802690355674E+01
    0.14932272961820871604E+01
    0.14137979536466123154E+01
    0.14922181738916540095E+01
    0.14796395921537233153E+01
    0.14599117873622411423E+01
    0.14292479731790439512E+01
    0.58641657993246742997E+00
    0.56161760898515744600E+00
    0.51885296742733100217E+00
    0.67090142478688641337E+00
    0.65258719245760710148E+00
    0.52214791268102156430E+00
    0.52818339827828864053E+00
    0.14797891436298149515E+01
    0.14419086975416492979E+01
    0.13889623523046270570E+01
    0.14697564673208167729E+01
    0.13489294031244212224E+01
    0.14767121305154879973E+01
    0.14631336155459733206E+01
    0.14935623108745248455E+01
    0.14894184451406111691E+01
    0.14587592206566619701E+01
    0.14919234177184912404E+01
    0.13051716737029699367E+01
    0.14620304422682732781E+01
    0.14350838838529331731E+01
    0.14090151634940306646E+01
    0.13457425720510132194E+01
    0.75252971240126020902E+00
    0.87745937130569384710E+00
    0.75040252426243725381E+00
    0.86617008621472346697E+00
    0.93619161857244370673E+00
    0.14441399857543499863E+01
    0.14882052303482224964E+01
    0.14740952628318340079E+01
    0.14869171646304752965E+01
    0.14910962879442359874E+01
    0.11422720849072212079E+01
    0.12771276572516514491E+01
    0.13111029163059781943E+01
    0.11002942261616819319E+01
    0.12007645015843702030E+01
    0.14839281286102017354E+01
    0.14788879152191447552E+01
    0.14907305864710098664E+01
    0.14630624621152219511E+01
    0.14903546821555564428E+01
    0.10564872003122127708E+01
    0.12997090430529179006E+01
    0.11491621145890142941E+01
    0.11592275251644388323E+01
    0.12826817253054791923E+01
    0.14432164606172332988E+01
    0.14718555171743050725E+01
    0.14275053246954785280E+01
    0.14713153258743820739E+01
    0.13577770431655244998E+01
    0.73025210607192292400E+00
    0.99308689244873371571E+00
    0.83221984100875001644E+00
    0.79433800392138964597E+00
    0.93471502553359253618E+00
    0.71679518124035646043E+00
    0.63303407790654875331E+00
    0.73179247865106278326E+00
    0.63976335871687972645E+00
    0.81042815699760117898E+00
    0.12140648650071672598E+01
    0.14090164116502341685E+01
    0.13227607806583006056E+01
    0.14304644933874570700E+01
    0.14066747330957469764E+01
    0.13038902201432422956E+01
    0.12911578414007878202E+01
    0.14174202684500942784E+01
    0.13931965800115020393E+01
    0.14434616537690370119E+01
    0.14920222213308718118E+01
    0.14498406629497373466E+01
    0.14504028432623405909E+01
    0.14919920207839170168E+01
    0.12045662711262168365E+01
    0.11436463014703419638E+01
    0.11372891096380939313E+01
    0.13493865296425779920E+01
    0.10809578817539886586E+01
    0.12571314420449180016E+01
    0.63184671180199059037E+00
    0.68327590216373368381E+00
    0.83397030324671961310E+00
    0.81343987748481438871E+00
    0.82844223467101518743E+00
    0.95226108070651471760E+00
    0.97630032431801061499E+00
    0.10699164085998742468E+01
    0.12322606550797694513E+01
    0.13737008359118139111E+01
    0.13494836921471478064E+01
    0.14266363433552857742E+01
    0.14859922596268828610E+01
    0.14887387619964440599E+01
    0.13682418532213653783E+01
    0.14742248134029911633E+01
    0.13127251889401829743E+01
    0.10593809089074885943E+01
    0.11170941627069235214E+01
    0.14776373317281463748E+01
    0.14892221926064694859E+01
    0.79138353239498127056E+00
    0.65730984941872028227E+00
    0.60371391724404399604E+00
    0.12069703002369214229E+01
    0.10113838541593676013E+01
    0.98993286246926603944E+00
    0.14047249946401314524E+01
    0.14307182539011329414E+01
    0.12276975890539594261E+01
    0.14833183929969724346E+01
    0.14258914618777618344E+01
    0.14061288051079858796E+01
    0.98343792270993957150E+00
    0.10083122424703647724E+01
    0.74463610247035760814E+00
    0.14761339041814662831E+01
    0.14954521567239753566E+01
    0.14696844701317774984E+01
    0.69440715315351986270E+00
    0.66939995265433338556E+00
    0.54159682159396571599E+00
    0.64358721944087726730E+00
    0.56699958577451603503E+00
    0.52006447539412692382E+00
    0.14780951268013087230E+01
    0.13642268262197738693E+01
    0.14682019071281136036E+01
    0.14844985640904393431E+01
    0.12494150103855854450E+01
    0.14711464760543697672E+01
    0.14080083840672943385E+01
    0.13840645009281087319E+01
    0.97454475992475708690E+00
    0.13075336233398764385E+01
    0.12273911014152567578E+01
    0.10865482573136731048E+01
    0.14392252223716257564E+01
    0.14079584244085270317E+01
    0.12737665597179157473E+01
    0.14834301357703283397E+01
    0.14660441579799479150E+01
    0.92054456349001068105E+00
    0.10097727245389651607E+01
    0.55043873801443010674E+00
    0.58540264104528749733E+00
    0.13800314584036594834E+01
    0.13452888096564268317E+01
    0.50677417720041051385E+00
    0.50644839068815272753E+00
    0.13959401507519293428E+01
    0.10038296618268582883E+01
    0.99486870428626705820E+00
    0.14646073933593055649E+01
    0.77312221767854716337E+00
    0.13809692598342582226E+01
    0.13403134470771682629E+01
    0.85075560160315411018E+00
    0.14747450544428972741E+01
    0.13685102101936359453E+01
    0.14772575738689024405E+01
    0.12950364294365863671E+01
    0.14701522637038082486E+01
    0.77769438572704974177E+00
    0.87463013966435454449E+00
    0.12503422153430445718E+01
    0.14479135569139862660E+01
    0.14896193984735746074E+01
    0.10789440248378454612E+01
    0.14889682791964360398E+01
    0.14555255416339061281E+01
    0.12015896448577290112E+01
    0.98309304949846354482E+00
    0.72143772627406477227E+00
    0.65549045976193565100E+00
    0.11036088125405225657E+01
    0.10630862629067094893E+01
    0.51881647485873139125E+00
    0.51700326271075336404E+00
    0.63765517441854691061E+00
    0.62589400730667410500E+00
    0.97746551952359839177E+00
    0.12292978582134530541E+01
    0.13941409302001375181E+01
    0.14661833497715464070E+01
    0.14743315199729751797E+01
    0.14361289489041579870E+01
    0.13138110309419248622E+01
    0.11912854946460575967E+01
    0.12526533019435421856E+01
    0.12250767751885847101E+01
    0.11231190991693402736E+01
    0.94241108678288365574E+00
    0.73557588978796706325E+00
    0.56724199646040862621E+00
    0.50483206341338004997E+00
    0.52015542251872848301E+00
    0.53036225395567127006E+00
    0.52961925452055202967E+00
    0.51048299560812682163E+00
    0.50569405997859839808E+00
    0.53971363231193414389E+00
    0.73087195351937517263E+00
    0.77597332985466338506E+00
    0.75414743709964060514E+00
    0.69001745754898879959E+00
    0.59401521418980696154E+00
    0.52275808734060635885E+00
    0.52213145723008458354E+00
