# vtk DataFile Version 3.0
LAPLACIEN  2D
ASCII
DATASET UNSTRUCTURED_GRID
 POINTS         391  float
  0.50371505999999999       0.50367786999999997        0.0000000000000000     
  0.29013556000000001       0.29014535000000002        0.0000000000000000     
  0.70165584999999997       0.71206597999999999        0.0000000000000000     
  0.70304188999999995       0.30176619999999998        0.0000000000000000     
  0.30920671999999999       0.71149227999999998        0.0000000000000000     
  0.79044983999999996       0.49884783999999999        0.0000000000000000     
  0.49102621000000002       0.20968644000000000        0.0000000000000000     
  0.49912957000000002       0.77208717000000004        0.0000000000000000     
  0.21724072999999999       0.48989389000000000        0.0000000000000000     
  0.83255933999999998       0.83046598000000005        0.0000000000000000     
  0.16646774000000000       0.17015694000000001        0.0000000000000000     
  0.83054514999999995       0.16736480000000001        0.0000000000000000     
  0.16953130999999999       0.83265739000000005        0.0000000000000000     
  0.42166445000000002       0.36345201999999999        0.0000000000000000     
  0.64462200999999997       0.56347807999999999        0.0000000000000000     
  0.35324633999999999       0.56311191000000005        0.0000000000000000     
  0.65456411000000003       0.84856860999999995        0.0000000000000000     
  0.35141477999999998       0.15563974000000000        0.0000000000000000     
  0.15290967000000000       0.35206625000000003        0.0000000000000000     
  0.82942241000000005       0.34936866000000000        0.0000000000000000     
  0.84390527000000004       0.64441694999999999        0.0000000000000000     
  0.63699174999999997       0.14284276000000001        0.0000000000000000     
  0.15620682999999999       0.64648446999999998        0.0000000000000000     
  0.36426062999999997       0.85756310999999996        0.0000000000000000     
  0.63489340999999999       0.40519052000000000        0.0000000000000000     
  0.52518872999999999       0.65957078000000002        0.0000000000000000     
  0.32158959999999998       0.42298103999999997        0.0000000000000000     
  0.58861710000000000       0.31711036999999997        0.0000000000000000     
  0.42078418000000001       0.69497151999999995        0.0000000000000000     
  0.48608786999999998       0.89334152000000000        0.0000000000000000     
   9.7084320000000002E-002  0.50000000000000000        0.0000000000000000     
  0.90291568000000000       0.50000000000000000        0.0000000000000000     
  0.51392453000000005       0.10668648999999999        0.0000000000000000     
  0.59792566999999996       0.73122754000000001        0.0000000000000000     
  0.74510058999999995       0.41124730999999998        0.0000000000000000     
  0.73212551999999997       0.90191560000000004        0.0000000000000000     
   9.7784830000000003E-002  0.26957329000000002        0.0000000000000000     
  0.26711221000000002        9.8671499999999995E-002   0.0000000000000000     
  0.90191560000000004       0.26787448000000003        0.0000000000000000     
  0.90118569000000004       0.73039821000000005        0.0000000000000000     
  0.73122947000000005        9.8017859999999998E-002   0.0000000000000000     
   9.8084400000000002E-002  0.73212551999999997        0.0000000000000000     
  0.26957329000000002       0.90221516999999996        0.0000000000000000     
  0.39283522999999998       0.25360379000000000        0.0000000000000000     
  0.74480864000000002       0.60495284999999999        0.0000000000000000     
  0.25505132000000003       0.60593640999999998        0.0000000000000000     
  0.52159297999999998       0.40671636000000000        0.0000000000000000     
  0.40768852000000000       0.47699891000000000        0.0000000000000000     
   9.1467049999999994E-002   9.1876959999999994E-002   0.0000000000000000     
  0.90842484999999995       0.90819225000000003        0.0000000000000000     
  0.90820104999999995        9.1566729999999999E-002   0.0000000000000000     
   9.1807449999999999E-002  0.90843574000000005        0.0000000000000000     
  0.27098960000000000       0.20527094000000001        0.0000000000000000     
  0.73457293999999995       0.79835387000000002        0.0000000000000000     
  0.79817773000000003       0.25713470999999999        0.0000000000000000     
  0.20747797000000001       0.72863946000000002        0.0000000000000000     
  0.20175195000000001       0.27583914999999998        0.0000000000000000     
  0.79603889000000005       0.72159035000000005        0.0000000000000000     
  0.71761666000000002       0.19748431999999999        0.0000000000000000     
  0.28462607000000001       0.80251899999999998        0.0000000000000000     
  0.69134598999999997       0.49261972999999998        0.0000000000000000     
  0.44720578999999999       0.58582935999999997        0.0000000000000000     
  0.24242269999999999       0.37228174000000003        0.0000000000000000     
  0.38265623999999998       0.93072131999999996        0.0000000000000000     
  0.60971754000000000       0.91988369000000003        0.0000000000000000     
   7.9163609999999995E-002  0.60979116000000000        0.0000000000000000     
  0.92010649000000000       0.61081183999999999        0.0000000000000000     
  0.61954008999999999        7.1530830000000004E-002   0.0000000000000000     
  0.91882012999999996       0.38917363999999999        0.0000000000000000     
  0.39086346000000000        8.0652249999999995E-002   0.0000000000000000     
   7.9183480000000001E-002  0.38966213000000000        0.0000000000000000     
  0.59114111999999996       0.49294315000000000        0.0000000000000000     
  0.63337980999999999       0.64485914000000000        0.0000000000000000     
  0.50012352000000004       0.29676539000000002        0.0000000000000000     
  0.82552601000000003       0.92753492000000004        0.0000000000000000     
  0.92774772999999999       0.82498556999999995        0.0000000000000000     
   7.1970870000000006E-002  0.17510291000000000        0.0000000000000000     
  0.17422821999999999        7.2635640000000001E-002   0.0000000000000000     
  0.82510813000000005        7.2134840000000006E-002   0.0000000000000000     
  0.92754665000000003       0.17446275999999999        0.0000000000000000     
  0.17501022999999999       0.92789951999999998        0.0000000000000000     
   7.2464680000000004E-002  0.82554053000000005        0.0000000000000000     
  0.30731587999999999       0.50885354999999999        0.0000000000000000     
  0.59033407999999998       0.22171178999999999        0.0000000000000000     
  0.40109191999999999       0.78725542000000004        0.0000000000000000     
  0.35420917000000002       0.63754104000000000        0.0000000000000000     
  0.15983976999999999       0.56665573000000002        0.0000000000000000     
  0.84108459999999996       0.56757886999999996        0.0000000000000000     
  0.83902096000000004       0.43344338999999998        0.0000000000000000     
  0.43230028999999998       0.16004268999999999        0.0000000000000000     
  0.57536027999999995       0.83041363999999995        0.0000000000000000     
  0.15771898000000001       0.42747892999999998        0.0000000000000000     
  0.34021692999999997       0.34221559000000001        0.0000000000000000     
  0.56002271999999997       0.57501117999999996        0.0000000000000000     
  0.65344329000000001       0.78147597999999996        0.0000000000000000     
   0.0000000000000000        0.0000000000000000        0.0000000000000000     
   1.0000000000000000        0.0000000000000000        0.0000000000000000     
   1.0000000000000000        1.0000000000000000        0.0000000000000000     
   0.0000000000000000        1.0000000000000000        0.0000000000000000     
  0.11111111000000000        0.0000000000000000        0.0000000000000000     
  0.22222222000000000        0.0000000000000000        0.0000000000000000     
  0.33333332999999998        0.0000000000000000        0.0000000000000000     
  0.44444444000000000        0.0000000000000000        0.0000000000000000     
  0.55555555999999995        0.0000000000000000        0.0000000000000000     
  0.66666667000000002        0.0000000000000000        0.0000000000000000     
  0.77777777999999997        0.0000000000000000        0.0000000000000000     
  0.88888889000000004        0.0000000000000000        0.0000000000000000     
   1.0000000000000000       0.11111111000000000        0.0000000000000000     
   1.0000000000000000       0.22222222000000000        0.0000000000000000     
   1.0000000000000000       0.33333332999999998        0.0000000000000000     
   1.0000000000000000       0.44444444000000000        0.0000000000000000     
   1.0000000000000000       0.55555555999999995        0.0000000000000000     
   1.0000000000000000       0.66666667000000002        0.0000000000000000     
   1.0000000000000000       0.77777777999999997        0.0000000000000000     
   1.0000000000000000       0.88888889000000004        0.0000000000000000     
  0.88888889000000004        1.0000000000000000        0.0000000000000000     
  0.77777777999999997        1.0000000000000000        0.0000000000000000     
  0.66666667000000002        1.0000000000000000        0.0000000000000000     
  0.55555555999999995        1.0000000000000000        0.0000000000000000     
  0.44444444000000000        1.0000000000000000        0.0000000000000000     
  0.33333332999999998        1.0000000000000000        0.0000000000000000     
  0.22222222000000000        1.0000000000000000        0.0000000000000000     
  0.11111111000000000        1.0000000000000000        0.0000000000000000     
   0.0000000000000000       0.11111111000000000        0.0000000000000000     
   0.0000000000000000       0.22222222000000000        0.0000000000000000     
[...]
 CELL_DATA         354
 SCALARS C float
 LOOKUP_TABLE default
    0.74252395104489976596E+00
    0.11471570551229139934E+01
    0.51937622108765746365E+00
    0.59889708702708455146E+00
    0.85994566723827792210E+00
    0.97491073086011192927E+00
    0.12362880607463653249E+01
    0.11079353155241182805E+01
    0.13430238843606634447E+01
    0.14129558534582393747E+01
    0.14771024059478701229E+01
    0.14633005749416116981E+01
    0.14867874033799304279E+01
    0.14906682470256702455E+01
    0.14830803522342146383E+01
    0.14875051481986056867E+01
    0.14545735823940202369E+01
    0.14091274543769474192E+01
    0.12603996137446480397E+01
    0.13339694296699520226E+01
    0.12175667277040940206E+01
    0.12548859070785571834E+01
    0.13382434131991118864E+01
    0.12992800756355875613E+01
    0.13475763367162949535E+01
    0.13274661430357732606E+01
    0.12580332613209179726E+01
    0.12961722704544658136E+01
    0.11853989950127059583E+01
    0.10803293463781615813E+01
    0.85781181080726198740E+00
    0.97261657562632386487E+00
    0.74678408267993812153E+00
    0.63487112382096055896E+00
    0.52207560389504292786E+00
    0.56617574500351441902E+00
    0.51319759141702037120E+00
    0.52078834609675461742E+00
    0.56546140083945162225E+00
    0.53171283447696005009E+00
    0.58014188760169571601E+00
    0.58334964810489897680E+00
    0.60211761175109479449E+00
    0.58859504563992159909E+00
    0.59074451641471537044E+00
    0.54843625684182062408E+00
    0.52186489085230280960E+00
    0.53277021352423659106E+00
    0.51708230878521377338E+00
    0.50780560522904749643E+00
    0.54727972122662060794E+00
    0.52842163470072855969E+00
    0.78356153960479701936E+00
    0.80692613556521453066E+00
    0.88957905689181981934E+00
    0.84135387015551899026E+00
    0.89807328831463351104E+00
    0.86854491018581925221E+00
    0.81615201495773259666E+00
    0.84275269592519697071E+00
    0.76639391675976575868E+00
    0.68651324336074814880E+00
    0.57229362296186114811E+00
    0.62936973946043195394E+00
    0.53715621134798208214E+00
    0.50591987394967985470E+00
    0.53690033101089362777E+00
    0.51793047131906777558E+00
    0.14362611432186593863E+01
    0.14890700724198693283E+01
    0.14863281479559218301E+01
    0.14736387132652890575E+01
    0.14936643557019342321E+01
    0.14870817246357608266E+01
    0.14674568928168278958E+01
    0.14246701574883684493E+01
    0.14525769031217774518E+01
    0.14914872760116482109E+01
    0.12189035498087901210E+01
    0.13100823019163858607E+01
    0.10741715853265318970E+01
    0.11585705489584687822E+01
    0.13179718412728029797E+01
    0.11212366310944901215E+01
    0.14457457422175163941E+01
    0.13226650345589157087E+01
    0.11985095171605435471E+01
    0.14153712996583354133E+01
    0.14367604595676581880E+01
    0.13842906388680371599E+01
    0.12650668580637032257E+01
    0.11265781265231720187E+01
    0.10889027093889749320E+01
    0.91830648469961173586E+00
    0.88525622724446817458E+00
    0.98650477307694361961E+00
    0.11634923965221353193E+01
    0.14236083321827301962E+01
    0.14889587097490211143E+01
    0.14543516528460547210E+01
    0.14908864334676243946E+01
    0.14215313100530879709E+01
    0.14804865280686108076E+01
    0.14111865572298234461E+01
    0.14052148334298968368E+01
    0.12981102897764635884E+01
    0.12987449164617861364E+01
    0.14289588077933454979E+01
    0.12290299715366626021E+01
    0.11539269567911556447E+01
    0.89096902043495807000E+00
    0.11437234433682179624E+01
    0.99892230533653658675E+00
    0.98209836373503245355E+00
    0.13961361811658226095E+01
    0.11026239761394875938E+01
    0.12239239734230320522E+01
    0.13501856803490372982E+01
    0.13500836683837638130E+01
    0.11284035600933990384E+01
    0.12222189641804437343E+01
    0.70351807057795179290E+00
    0.81974666942357576893E+00
    0.62316897747675059627E+00
    0.84061840866090897784E+00
    0.91074675996594445238E+00
    0.63399411889609891269E+00
    0.68776911476019209069E+00
    0.11354482101952421136E+01
    0.12897962236721598472E+01
    0.10503252773558489075E+01
    0.13398648769759358146E+01
    0.12784721140017836216E+01
    0.10544382839671602170E+01
    0.11571980225166169642E+01
    0.14704546055364906554E+01
    0.14932260193575903617E+01
    0.14137970982084522298E+01
    0.14922166427501284414E+01
    0.14796385505440836639E+01
    0.14599105194973234223E+01
    0.14292473366941185198E+01
    0.58641799006438344311E+00
    0.56161918031601743007E+00
    0.51885400448468599333E+00
    0.67090154997414919169E+00
    0.65258759913164610111E+00
    0.52214962575608114825E+00
    0.52818522995735450731E+00
    0.14797880366694062815E+01
    0.14419078495884067870E+01
    0.13889620896661820648E+01
    0.14697555874899295159E+01
    0.13489295894438155798E+01
    0.14767107892174717865E+01
    0.14631316961722369285E+01
    0.14935608516471072793E+01
    0.14894172278582098468E+01
    0.14587571935654342070E+01
    0.14919221858528377567E+01
    0.13051694249235428202E+01
    0.14620297881716313171E+01
    0.14350826571712009816E+01
    0.14090136499454688490E+01
    0.13457409850213513103E+01
    0.75252863373875633624E+00
    0.87745857760892387311E+00
    0.75040112649937551481E+00
    0.86617035332406788761E+00
    0.93619142037661062794E+00
    0.14441378127001227583E+01
    0.14882040022992650830E+01
    0.14740937641051476970E+01
    0.14869152754033532204E+01
    0.14910950148355337497E+01
    0.11422697594686674893E+01
    0.12771266947154762406E+01
    0.13111026495707194250E+01
    0.11002918054993515717E+01
    0.12007638762353225470E+01
    0.14839269353715720534E+01
    0.14788859975179806661E+01
    0.14907293395677956305E+01
    0.14630605924816195706E+01
    0.14903532916378299245E+01
    0.10564848795784109736E+01
    0.12997084464581409868E+01
    0.11491613725523088796E+01
    0.11592253169932631440E+01
    0.12826808451680715706E+01
    0.14432153324718406395E+01
    0.14718546432947618996E+01
    0.14275044625434336609E+01
    0.14713133671980653805E+01
    0.13577773520965554788E+01
    0.73025108199693244959E+00
    0.99308752177856352006E+00
    0.83222037985120456138E+00
    0.79433687812094710967E+00
    0.93471509253857298916E+00
    0.71679727493852851694E+00
    0.63303413325832069702E+00
    0.73179356028220565733E+00
    0.63976495157036250561E+00
    0.81042939349277409722E+00
    0.12140685751508519807E+01
    0.14090153587384373068E+01
    0.13227616239049917457E+01
    0.14304639368325007265E+01
    0.14066740837257649677E+01
    0.13038887144116220185E+01
    0.12911568366292254240E+01
    0.14174186397167507501E+01
    0.13931951564448827874E+01
    0.14434599762831272773E+01
    0.14920207576483943690E+01
    0.14498387182098901871E+01
    0.14504014797691018313E+01
    0.14919909382506704176E+01
    0.12045705834553213087E+01
    0.11436535041051754114E+01
    0.11372977913772124303E+01
    0.13493855876297491392E+01
    0.10809572245998519957E+01
    0.12571301158209871041E+01
    0.63184895803416529780E+00
    0.68327619480029877508E+00
    0.83396939264333669328E+00
    0.81343904516008513905E+00
    0.82844190272455131563E+00
    0.95225999262741900520E+00
    0.97629991596357013073E+00
    0.10699140900858337133E+01
    0.12322593964702361902E+01
    0.13736989352593993452E+01
    0.13494821982478013567E+01
    0.14266341071248900274E+01
    0.14859900429526826660E+01
    0.14887375675487650728E+01
    0.13682430947101855701E+01
    0.14742236088430189511E+01
    0.13127238613514342624E+01
    0.10593803911124268780E+01
    0.11170943786287124144E+01
    0.14776361931708386077E+01
    0.14892210053305288131E+01
    0.79138298552337493774E+00
    0.65730959980381054031E+00
    0.60371573244059228980E+00
    0.12069687709960776889E+01
    0.10113826292349785696E+01
    0.98993349293668697619E+00
    0.14047228791748747057E+01
    0.14307161494873625873E+01
    0.12276979666881004949E+01
    0.14833166376385751306E+01
    0.14258898255112852915E+01
    0.14061278515203703421E+01
    0.98343664559694521365E+00
    0.10083104215550042770E+01
    0.74463793704705460996E+00
    0.14761329243478700235E+01
    0.14954508978729277313E+01
    0.14696833631575338952E+01
    0.69440716284925985136E+00
    0.66939968288559070775E+00
    0.54159862567305494530E+00
    0.64358771777646905932E+00
    0.56700030248028532309E+00
    0.52006618833818940573E+00
    0.14780941952465944667E+01
    0.13642279578889449088E+01
    0.14682006471535444803E+01
    0.14844969837291839276E+01
    0.12494149076077243343E+01
    0.14711450612976331165E+01
    0.14080065542462785189E+01
    0.13840634660373889453E+01
    0.97454526325229351436E+00
    0.13075308555030993318E+01
    0.12273889771879504806E+01
    0.10865487122443866497E+01
    0.14392247136655054174E+01
    0.14079574535602870089E+01
    0.12737687760444684759E+01
    0.14834287859806545296E+01
    0.14660433105272117071E+01
    0.92054458448469111964E+00
    0.10097722916489570988E+01
    0.55043981370749650583E+00
    0.58540346672639931302E+00
    0.13800301793530405092E+01
    0.13452877253649844214E+01
    0.50677534609554375500E+00
    0.50644958085978419859E+00
    0.13959382440949958948E+01
    0.10038288679728823993E+01
    0.99486782708675147724E+00
    0.14646064880809697151E+01
    0.77312204007636275982E+00
    0.13809681141877749866E+01
    0.13403122838939438566E+01
    0.85075675169791498131E+00
    0.14747441284253548499E+01
    0.13685095143796617290E+01
    0.14772560718917273626E+01
    0.12950369528029925803E+01
    0.14701509033001975979E+01
    0.77769358597362669983E+00
    0.87462925827634874221E+00
    0.12503405699981422483E+01
    0.14479116351852476807E+01
    0.14896181694664016870E+01
    0.10789422060049111973E+01
    0.14889672904212751803E+01
    0.14555237767274209482E+01
    0.12015931369718699795E+01
    0.98309288437709940744E+00
    0.72143878992194210298E+00
    0.65549337103866023302E+00
    0.11036101800284527918E+01
    0.10630889272819772362E+01
    0.51881692877049012669E+00
    0.51700346588307521944E+00
    0.63765402298288531568E+00
    0.62589334213097458370E+00
    0.97746694971250602801E+00
    0.12292997124893960681E+01
    0.13941419361765687857E+01
    0.14661836627295419255E+01
    0.14743318411727317496E+01
    0.14361296653651638433E+01
    0.13138121706418430801E+01
    0.11912880000361973920E+01
    0.12526559552484954896E+01
    0.12250794928849872978E+01
    0.11231219245825319053E+01
    0.94241395620634271779E+00
    0.73557867845070479262E+00
    0.56724326567887550787E+00
    0.50483298916945851254E+00
    0.52015728138417083315E+00
    0.53036435238839629847E+00
    0.52962143314391940674E+00
    0.51048443952119448852E+00
    0.50569482761550677008E+00
    0.53971332886551603991E+00
    0.73087507750259206318E+00
    0.77597700956423132368E+00
    0.75415100301623572143E+00
    0.69002068135577898644E+00
    0.59401767355511214674E+00
    0.52275980789000264792E+00
    0.52213166655395371052E+00
