# vtk DataFile Version 3.0
LAPLACIEN  2D
ASCII
DATASET UNSTRUCTURED_GRID
 POINTS         391  float
  0.50371505999999999       0.50367786999999997        0.0000000000000000     
  0.29013556000000001       0.29014535000000002        0.0000000000000000     
  0.70165584999999997       0.71206597999999999        0.0000000000000000     
  0.70304188999999995       0.30176619999999998        0.0000000000000000     
  0.30920671999999999       0.71149227999999998        0.0000000000000000     
  0.79044983999999996       0.49884783999999999        0.0000000000000000     
  0.49102621000000002       0.20968644000000000        0.0000000000000000     
  0.49912957000000002       0.77208717000000004        0.0000000000000000     
  0.21724072999999999       0.48989389000000000        0.0000000000000000     
  0.83255933999999998       0.83046598000000005        0.0000000000000000     
  0.16646774000000000       0.17015694000000001        0.0000000000000000     
  0.83054514999999995       0.16736480000000001        0.0000000000000000     
  0.16953130999999999       0.83265739000000005        0.0000000000000000     
  0.42166445000000002       0.36345201999999999        0.0000000000000000     
  0.64462200999999997       0.56347807999999999        0.0000000000000000     
  0.35324633999999999       0.56311191000000005        0.0000000000000000     
  0.65456411000000003       0.84856860999999995        0.0000000000000000     
  0.35141477999999998       0.15563974000000000        0.0000000000000000     
  0.15290967000000000       0.35206625000000003        0.0000000000000000     
  0.82942241000000005       0.34936866000000000        0.0000000000000000     
  0.84390527000000004       0.64441694999999999        0.0000000000000000     
  0.63699174999999997       0.14284276000000001        0.0000000000000000     
  0.15620682999999999       0.64648446999999998        0.0000000000000000     
  0.36426062999999997       0.85756310999999996        0.0000000000000000     
  0.63489340999999999       0.40519052000000000        0.0000000000000000     
  0.52518872999999999       0.65957078000000002        0.0000000000000000     
  0.32158959999999998       0.42298103999999997        0.0000000000000000     
  0.58861710000000000       0.31711036999999997        0.0000000000000000     
  0.42078418000000001       0.69497151999999995        0.0000000000000000     
  0.48608786999999998       0.89334152000000000        0.0000000000000000     
   9.7084320000000002E-002  0.50000000000000000        0.0000000000000000     
  0.90291568000000000       0.50000000000000000        0.0000000000000000     
  0.51392453000000005       0.10668648999999999        0.0000000000000000     
  0.59792566999999996       0.73122754000000001        0.0000000000000000     
  0.74510058999999995       0.41124730999999998        0.0000000000000000     
  0.73212551999999997       0.90191560000000004        0.0000000000000000     
   9.7784830000000003E-002  0.26957329000000002        0.0000000000000000     
  0.26711221000000002        9.8671499999999995E-002   0.0000000000000000     
  0.90191560000000004       0.26787448000000003        0.0000000000000000     
  0.90118569000000004       0.73039821000000005        0.0000000000000000     
  0.73122947000000005        9.8017859999999998E-002   0.0000000000000000     
   9.8084400000000002E-002  0.73212551999999997        0.0000000000000000     
  0.26957329000000002       0.90221516999999996        0.0000000000000000     
  0.39283522999999998       0.25360379000000000        0.0000000000000000     
  0.74480864000000002       0.60495284999999999        0.0000000000000000     
  0.25505132000000003       0.60593640999999998        0.0000000000000000     
  0.52159297999999998       0.40671636000000000        0.0000000000000000     
  0.40768852000000000       0.47699891000000000        0.0000000000000000     
   9.1467049999999994E-002   9.1876959999999994E-002   0.0000000000000000     
  0.90842484999999995       0.90819225000000003        0.0000000000000000     
  0.90820104999999995        9.1566729999999999E-002   0.0000000000000000     
   9.1807449999999999E-002  0.90843574000000005        0.0000000000000000     
  0.27098960000000000       0.20527094000000001        0.0000000000000000     
  0.73457293999999995       0.79835387000000002        0.0000000000000000     
  0.79817773000000003       0.25713470999999999        0.0000000000000000     
  0.20747797000000001       0.72863946000000002        0.0000000000000000     
  0.20175195000000001       0.27583914999999998        0.0000000000000000     
  0.79603889000000005       0.72159035000000005        0.0000000000000000     
  0.71761666000000002       0.19748431999999999        0.0000000000000000     
  0.28462607000000001       0.80251899999999998        0.0000000000000000     
  0.69134598999999997       0.49261972999999998        0.0000000000000000     
  0.44720578999999999       0.58582935999999997        0.0000000000000000     
  0.24242269999999999       0.37228174000000003        0.0000000000000000     
  0.38265623999999998       0.93072131999999996        0.0000000000000000     
  0.60971754000000000       0.91988369000000003        0.0000000000000000     
   7.9163609999999995E-002  0.60979116000000000        0.0000000000000000     
  0.92010649000000000       0.61081183999999999        0.0000000000000000     
  0.61954008999999999        7.1530830000000004E-002   0.0000000000000000     
  0.91882012999999996       0.38917363999999999        0.0000000000000000     
  0.39086346000000000        8.0652249999999995E-002   0.0000000000000000     
   7.9183480000000001E-002  0.38966213000000000        0.0000000000000000     
  0.59114111999999996       0.49294315000000000        0.0000000000000000     
  0.63337980999999999       0.64485914000000000        0.0000000000000000     
  0.50012352000000004       0.29676539000000002        0.0000000000000000     
  0.82552601000000003       0.92753492000000004        0.0000000000000000     
  0.92774772999999999       0.82498556999999995        0.0000000000000000     
   7.1970870000000006E-002  0.17510291000000000        0.0000000000000000     
  0.17422821999999999        7.2635640000000001E-002   0.0000000000000000     
  0.82510813000000005        7.2134840000000006E-002   0.0000000000000000     
  0.92754665000000003       0.17446275999999999        0.0000000000000000     
  0.17501022999999999       0.92789951999999998        0.0000000000000000     
   7.2464680000000004E-002  0.82554053000000005        0.0000000000000000     
  0.30731587999999999       0.50885354999999999        0.0000000000000000     
  0.59033407999999998       0.22171178999999999        0.0000000000000000     
  0.40109191999999999       0.78725542000000004        0.0000000000000000     
  0.35420917000000002       0.63754104000000000        0.0000000000000000     
  0.15983976999999999       0.56665573000000002        0.0000000000000000     
  0.84108459999999996       0.56757886999999996        0.0000000000000000     
  0.83902096000000004       0.43344338999999998        0.0000000000000000     
  0.43230028999999998       0.16004268999999999        0.0000000000000000     
  0.57536027999999995       0.83041363999999995        0.0000000000000000     
  0.15771898000000001       0.42747892999999998        0.0000000000000000     
  0.34021692999999997       0.34221559000000001        0.0000000000000000     
  0.56002271999999997       0.57501117999999996        0.0000000000000000     
  0.65344329000000001       0.78147597999999996        0.0000000000000000     
   0.0000000000000000        0.0000000000000000        0.0000000000000000     
   1.0000000000000000        0.0000000000000000        0.0000000000000000     
   1.0000000000000000        1.0000000000000000        0.0000000000000000     
   0.0000000000000000        1.0000000000000000        0.0000000000000000     
  0.11111111000000000        0.0000000000000000        0.0000000000000000     
  0.22222222000000000        0.0000000000000000        0.0000000000000000     
  0.33333332999999998        0.0000000000000000        0.0000000000000000     
  0.44444444000000000        0.0000000000000000        0.0000000000000000     
  0.55555555999999995        0.0000000000000000        0.0000000000000000     
  0.66666667000000002        0.0000000000000000        0.0000000000000000     
  0.77777777999999997        0.0000000000000000        0.0000000000000000     
  0.88888889000000004        0.0000000000000000        0.0000000000000000     
   1.0000000000000000       0.11111111000000000        0.0000000000000000     
   1.0000000000000000       0.22222222000000000        0.0000000000000000     
   1.0000000000000000       0.33333332999999998        0.0000000000000000     
   1.0000000000000000       0.44444444000000000        0.0000000000000000     
   1.0000000000000000       0.55555555999999995        0.0000000000000000     
   1.0000000000000000       0.66666667000000002        0.0000000000000000     
   1.0000000000000000       0.77777777999999997        0.0000000000000000     
   1.0000000000000000       0.88888889000000004        0.0000000000000000     
  0.88888889000000004        1.0000000000000000        0.0000000000000000     
  0.77777777999999997        1.0000000000000000        0.0000000000000000     
  0.66666667000000002        1.0000000000000000        0.0000000000000000     
  0.55555555999999995        1.0000000000000000        0.0000000000000000     
  0.44444444000000000        1.0000000000000000        0.0000000000000000     
  0.33333332999999998        1.0000000000000000        0.0000000000000000     
  0.22222222000000000        1.0000000000000000        0.0000000000000000     
  0.11111111000000000        1.0000000000000000        0.0000000000000000     
   0.0000000000000000       0.11111111000000000        0.0000000000000000     
   0.0000000000000000       0.22222222000000000        0.0000000000000000     
[...]
 CELL_DATA         354
 SCALARS C float
 LOOKUP_TABLE default
    0.74252830536435432407E+00
    0.11471611687472476060E+01
    0.51937713451514977425E+00
    0.59889525165618129332E+00
    0.85994621417066396951E+00
    0.97491206175314859550E+00
    0.12362904064286472927E+01
    0.11079373856805694309E+01
    0.13430247907026791054E+01
    0.14129555498201349373E+01
    0.14771018216272453483E+01
    0.14633002403072357112E+01
    0.14867863919877537526E+01
    0.14906670521423501796E+01
    0.14830793623131972581E+01
    0.14875037803610577924E+01
    0.14545736626336849273E+01
    0.14091280312665033225E+01
    0.12603994921303829368E+01
    0.13339694904513397233E+01
    0.12175687663054501897E+01
    0.12548874862163454935E+01
    0.13382455238549424426E+01
    0.12992822131351025039E+01
    0.13475789660596384500E+01
    0.13274685702084336736E+01
    0.12580355692194009620E+01
    0.12961742488020830955E+01
    0.11854025882141283610E+01
    0.10803328529405646918E+01
    0.85781582805456502161E+00
    0.97261977701847723843E+00
    0.74678874995249522328E+00
    0.63487434219150018500E+00
    0.52207746350179440320E+00
    0.56617824059576749018E+00
    0.51319881644607467930E+00
    0.52079031187726065877E+00
    0.56546457945850381321E+00
    0.53171512425034461735E+00
    0.58014636989575085746E+00
    0.58335390474568660224E+00
    0.60212239952901791540E+00
    0.58859929928516963038E+00
    0.59074830702528835502E+00
    0.54843938512080037118E+00
    0.52186791323142056598E+00
    0.53277376139256238385E+00
    0.51708421957090366927E+00
    0.50780640777225138915E+00
    0.54727959937953507552E+00
    0.52842246380658841609E+00
    0.78356518910633110586E+00
    0.80692942947785128993E+00
    0.88958356752034306592E+00
    0.84135797640282494747E+00
    0.89807927146097954463E+00
    0.86855033407504489418E+00
    0.81615659132155071731E+00
    0.84275714698007797576E+00
    0.76639899791449439537E+00
    0.68651754617918481216E+00
    0.57229790037211558662E+00
    0.62937400918987573828E+00
    0.53715935830556060804E+00
    0.50592148532853331577E+00
    0.53690109423223542073E+00
    0.51793194180855506303E+00
    0.14362592147295081269E+01
    0.14890673844243500490E+01
    0.14863249694129190281E+01
    0.14736364864127973195E+01
    0.14936616678763634525E+01
    0.14870797466867675674E+01
    0.14674542192807331631E+01
    0.14246665186162232875E+01
    0.14525738181972192020E+01
    0.14914845598229264922E+01
    0.12189035640147052320E+01
    0.13100813005062936778E+01
    0.10741703017994403968E+01
    0.11585696402923151282E+01
    0.13179688799467998983E+01
    0.11212382057782070977E+01
    0.14457443420525635247E+01
    0.13226672008785582690E+01
    0.11985218198757898733E+01
    0.14153695163701893733E+01
    0.14367591374337775889E+01
    0.13842880622436575244E+01
    0.12650725684520323089E+01
    0.11265738356439438661E+01
    0.10888999384025270789E+01
    0.91830567691137088282E+00
    0.88525621535142962060E+00
    0.98650365608765955283E+00
    0.11634872942283922548E+01
    0.14236056318433627510E+01
    0.14889564764540059727E+01
    0.14543489831477256491E+01
    0.14908835897489831623E+01
    0.14215296705604705263E+01
    0.14804835411647272458E+01
    0.14111864575312278447E+01
    0.14052151798374454827E+01
    0.12981103748739122317E+01
    0.12987445631719647388E+01
    0.14289565585563375194E+01
    0.12290273859085454333E+01
    0.11539258587194924921E+01
    0.89096583738211898584E+00
    0.11437224553013334294E+01
    0.99891986032853130606E+00
    0.98209795779828579221E+00
    0.13961324499480007866E+01
    0.11026222897113384658E+01
    0.12239218498367414600E+01
    0.13501841863445958047E+01
    0.13500796410389945823E+01
    0.11284051406814907814E+01
    0.12222175706939060191E+01
    0.70351969317554563510E+00
    0.81974793919279187460E+00
    0.62317080850037476214E+00
    0.84061676265086471282E+00
    0.91074518135867343904E+00
    0.63399809803213635906E+00
    0.68777226152797599212E+00
    0.11354478116266617516E+01
    0.12897946159451401105E+01
    0.10503253736365163462E+01
    0.13398607829388988755E+01
    0.12784685349581341729E+01
    0.10544402250529025800E+01
    0.11571983034031698701E+01
    0.14704518561248223207E+01
    0.14932234657669796185E+01
    0.14137953872542294853E+01
    0.14922135806404153158E+01
    0.14796364672842021726E+01
    0.14599079838799271513E+01
    0.14292460634740464798E+01
    0.58642081012323399314E+00
    0.56162232275633261480E+00
    0.51885607878676986982E+00
    0.67090180056437487277E+00
    0.65258841260106414950E+00
    0.52215305167680781118E+00
    0.52818889300761129313E+00
    0.14797858227150784138E+01
    0.14419061538757764751E+01
    0.13889615646237545299E+01
    0.14697538278086879071E+01
    0.13489299623607575729E+01
    0.14767081067583149867E+01
    0.14631278575798423169E+01
    0.14935579332171031730E+01
    0.14894147933540122786E+01
    0.14587531395929946854E+01
    0.14919197219928126419E+01
    0.13051649273636047877E+01
    0.14620284797074589722E+01
    0.14350802039428485202E+01
    0.14090106227299081798E+01
    0.13457378109418907108E+01
    0.75252647687596463388E+00
    0.87745699019894940474E+00
    0.75039833168511238526E+00
    0.86617088703301470254E+00
    0.93619102387100117113E+00
    0.14441334667641261280E+01
    0.14882015462521871463E+01
    0.14740907665894877887E+01
    0.14869114970954977473E+01
    0.14910924685731723471E+01
    0.11422651092619202640E+01
    0.12771247693770242382E+01
    0.13111021159942031211E+01
    0.11002869648589674867E+01
    0.12007626254099466045E+01
    0.14839245489186958515E+01
    0.14788821623064967170E+01
    0.14907268456926519029E+01
    0.14630568533410823751E+01
    0.14903505105449736945E+01
    0.10564802386252878375E+01
    0.12997072532423836755E+01
    0.11491598882781166591E+01
    0.11592209010290284166E+01
    0.12826790847064259982E+01
    0.14432130765408108797E+01
    0.14718528953708611695E+01
    0.14275027381144975713E+01
    0.14713094504527455264E+01
    0.13577779693816030004E+01
    0.73024903442905442219E+00
    0.99308878027244662512E+00
    0.83222145719322160318E+00
    0.79433462695778656038E+00
    0.93471522648268434708E+00
    0.71680146154981227991E+00
    0.63303424440004640861E+00
    0.73179572330736530894E+00
    0.63976813699247814249E+00
    0.81043186618148710387E+00
    0.12140759951974424702E+01
    0.14090132533146733085E+01
    0.13227633105877847353E+01
    0.14304628235697876004E+01
    0.14066727851514253533E+01
    0.13038857031667756559E+01
    0.12911548270550567974E+01
    0.14174153823785429207E+01
    0.13931923092817908305E+01
    0.14434566213929829193E+01
    0.14920178305375424443E+01
    0.14498348291918001784E+01
    0.14503987526331554303E+01
    0.14919887729751004635E+01
    0.12045792076219459243E+01
    0.11436679075769637937E+01
    0.11373151519643693863E+01
    0.13493837034493449956E+01
    0.10809559101690511262E+01
    0.12571274632262725568E+01
    0.63185345010373217267E+00
    0.68327678027436467012E+00
    0.83396757201722693242E+00
    0.81343738071090876396E+00
    0.82844123928424240333E+00
    0.95225781691453181832E+00
    0.97629909921472390888E+00
    0.10699094539321971631E+01
    0.12322568797562756249E+01
    0.13736951344605499159E+01
    0.13494792105841475482E+01
    0.14266296350582212682E+01
    0.14859856104222162188E+01
    0.14887351788213452064E+01
    0.13682455769796264544E+01
    0.14742211999352490270E+01
    0.13127212064066020591E+01
    0.10593793557062274324E+01
    0.11170948102902129584E+01
    0.14776339160874900625E+01
    0.14892186307464077011E+01
    0.79138189196862607222E+00
    0.65730910099490980070E+00
    0.60371936245194535164E+00
    0.12069657126680879422E+01
    0.10113801800356727600E+01
    0.98993475396932717469E+00
    0.14047186485306513148E+01
    0.14307119411219542116E+01
    0.12276987217514683248E+01
    0.14833131270709178917E+01
    0.14258865532439581880E+01
    0.14061259446313529864E+01
    0.98343409164381268006E+00
    0.10083067803986380806E+01
    0.74464160590138894769E+00
    0.14761309646928730821E+01
    0.14954483803062643688E+01
    0.14696811494026891243E+01
    0.69440718239387200228E+00
    0.66939914371970588025E+00
    0.54160223357749737172E+00
    0.64358871456785082810E+00
    0.56700173605437753643E+00
    0.52006961394922579522E+00
    0.14780923320110603836E+01
    0.13642302206914243001E+01
    0.14681981274823998618E+01
    0.14844938233016842233E+01
    0.12494147018406074334E+01
    0.14711422317244193803E+01
    0.14080028947859166699E+01
    0.13840613963188053148E+01
    0.97454626958506751500E+00
    0.13075253204117447403E+01
    0.12273847288364283514E+01
    0.10865496218385757299E+01
    0.14392236961570998854E+01
    0.14079555121791398342E+01
    0.12737732087277529036E+01
    0.14834260864717183637E+01
    0.14660416154749305040E+01
    0.92054462687711158253E+00
    0.10097714262197801105E+01
    0.55044196511098830715E+00
    0.58540511827421015667E+00
    0.13800276215605467023E+01
    0.13452855572134430062E+01
    0.50677768374825693520E+00
    0.50645196114470425464E+00
    0.13959344307931971230E+01
    0.10038272802449978993E+01
    0.99486607299665585913E+00
    0.14646046773931118423E+01
    0.77312168497080879792E+00
    0.13809658228867756069E+01
    0.13403099586221449702E+01
    0.85075905153280251270E+00
    0.14747422763723574413E+01
    0.13685081225216566558E+01
    0.14772530679026305567E+01
    0.12950379989488589594E+01
    0.14701481824240334451E+01
    0.77769198677853157431E+00
    0.87462749579293419533E+00
    0.12503372795040996746E+01
    0.14479077917901470585E+01
    0.14896157113931223215E+01
    0.10789385685221535294E+01
    0.14889653127727195958E+01
    0.14555202470102375223E+01
    0.12016001212938147713E+01
    0.98309255419264862663E+00
    0.72144091752943340090E+00
    0.65549919306970583222E+00
    0.11036129151552733774E+01
    0.10630942556108200492E+01
    0.51881783655345015127E+00
    0.51700387229495292640E+00
    0.63765172030237193823E+00
    0.62589201175170017244E+00
    0.97746980992014864675E+00
    0.12293034206563033806E+01
    0.13941439479033512772E+01
    0.14661842884518159202E+01
    0.14743324834010256286E+01
    0.14361310980243593427E+01
    0.13138144498182242614E+01
    0.11912930104186250091E+01
    0.12526612613720238265E+01
    0.12250849278863182867E+01
    0.11231275749697862132E+01
    0.94241969473886688657E+00
    0.73558425538854332881E+00
    0.56724580407652358538E+00
    0.50483484065373973593E+00
    0.52016099900489498609E+00
    0.53036854919959441901E+00
    0.52962579022152778130E+00
    0.51048732732159107783E+00
    0.50569636293850928066E+00
    0.53971272210972764949E+00
    0.73088132508866743287E+00
    0.77598436852491192717E+00
    0.75415813453080526862E+00
    0.69002712860775783366E+00
    0.59402259214594022030E+00
    0.52276324886464542452E+00
    0.52213208528211008108E+00
