# vtk DataFile Version 3.0
LAPLACIEN  2D
ASCII
DATASET UNSTRUCTURED_GRID
 POINTS         391  float
  0.50371505999999999       0.50367786999999997        0.0000000000000000     
  0.29013556000000001       0.29014535000000002        0.0000000000000000     
  0.70165584999999997       0.71206597999999999        0.0000000000000000     
  0.70304188999999995       0.30176619999999998        0.0000000000000000     
  0.30920671999999999       0.71149227999999998        0.0000000000000000     
  0.79044983999999996       0.49884783999999999        0.0000000000000000     
  0.49102621000000002       0.20968644000000000        0.0000000000000000     
  0.49912957000000002       0.77208717000000004        0.0000000000000000     
  0.21724072999999999       0.48989389000000000        0.0000000000000000     
  0.83255933999999998       0.83046598000000005        0.0000000000000000     
  0.16646774000000000       0.17015694000000001        0.0000000000000000     
  0.83054514999999995       0.16736480000000001        0.0000000000000000     
  0.16953130999999999       0.83265739000000005        0.0000000000000000     
  0.42166445000000002       0.36345201999999999        0.0000000000000000     
  0.64462200999999997       0.56347807999999999        0.0000000000000000     
  0.35324633999999999       0.56311191000000005        0.0000000000000000     
  0.65456411000000003       0.84856860999999995        0.0000000000000000     
  0.35141477999999998       0.15563974000000000        0.0000000000000000     
  0.15290967000000000       0.35206625000000003        0.0000000000000000     
  0.82942241000000005       0.34936866000000000        0.0000000000000000     
  0.84390527000000004       0.64441694999999999        0.0000000000000000     
  0.63699174999999997       0.14284276000000001        0.0000000000000000     
  0.15620682999999999       0.64648446999999998        0.0000000000000000     
  0.36426062999999997       0.85756310999999996        0.0000000000000000     
  0.63489340999999999       0.40519052000000000        0.0000000000000000     
  0.52518872999999999       0.65957078000000002        0.0000000000000000     
  0.32158959999999998       0.42298103999999997        0.0000000000000000     
  0.58861710000000000       0.31711036999999997        0.0000000000000000     
  0.42078418000000001       0.69497151999999995        0.0000000000000000     
  0.48608786999999998       0.89334152000000000        0.0000000000000000     
   9.7084320000000002E-002  0.50000000000000000        0.0000000000000000     
  0.90291568000000000       0.50000000000000000        0.0000000000000000     
  0.51392453000000005       0.10668648999999999        0.0000000000000000     
  0.59792566999999996       0.73122754000000001        0.0000000000000000     
  0.74510058999999995       0.41124730999999998        0.0000000000000000     
  0.73212551999999997       0.90191560000000004        0.0000000000000000     
   9.7784830000000003E-002  0.26957329000000002        0.0000000000000000     
  0.26711221000000002        9.8671499999999995E-002   0.0000000000000000     
  0.90191560000000004       0.26787448000000003        0.0000000000000000     
  0.90118569000000004       0.73039821000000005        0.0000000000000000     
  0.73122947000000005        9.8017859999999998E-002   0.0000000000000000     
   9.8084400000000002E-002  0.73212551999999997        0.0000000000000000     
  0.26957329000000002       0.90221516999999996        0.0000000000000000     
  0.39283522999999998       0.25360379000000000        0.0000000000000000     
  0.74480864000000002       0.60495284999999999        0.0000000000000000     
  0.25505132000000003       0.60593640999999998        0.0000000000000000     
  0.52159297999999998       0.40671636000000000        0.0000000000000000     
  0.40768852000000000       0.47699891000000000        0.0000000000000000     
   9.1467049999999994E-002   9.1876959999999994E-002   0.0000000000000000     
  0.90842484999999995       0.90819225000000003        0.0000000000000000     
  0.90820104999999995        9.1566729999999999E-002   0.0000000000000000     
   9.1807449999999999E-002  0.90843574000000005        0.0000000000000000     
  0.27098960000000000       0.20527094000000001        0.0000000000000000     
  0.73457293999999995       0.79835387000000002        0.0000000000000000     
  0.79817773000000003       0.25713470999999999        0.0000000000000000     
  0.20747797000000001       0.72863946000000002        0.0000000000000000     
  0.20175195000000001       0.27583914999999998        0.0000000000000000     
  0.79603889000000005       0.72159035000000005        0.0000000000000000     
  0.71761666000000002       0.19748431999999999        0.0000000000000000     
  0.28462607000000001       0.80251899999999998        0.0000000000000000     
  0.69134598999999997       0.49261972999999998        0.0000000000000000     
  0.44720578999999999       0.58582935999999997        0.0000000000000000     
  0.24242269999999999       0.37228174000000003        0.0000000000000000     
  0.38265623999999998       0.93072131999999996        0.0000000000000000     
  0.60971754000000000       0.91988369000000003        0.0000000000000000     
   7.9163609999999995E-002  0.60979116000000000        0.0000000000000000     
  0.92010649000000000       0.61081183999999999        0.0000000000000000     
  0.61954008999999999        7.1530830000000004E-002   0.0000000000000000     
  0.91882012999999996       0.38917363999999999        0.0000000000000000     
  0.39086346000000000        8.0652249999999995E-002   0.0000000000000000     
   7.9183480000000001E-002  0.38966213000000000        0.0000000000000000     
  0.59114111999999996       0.49294315000000000        0.0000000000000000     
  0.63337980999999999       0.64485914000000000        0.0000000000000000     
  0.50012352000000004       0.29676539000000002        0.0000000000000000     
  0.82552601000000003       0.92753492000000004        0.0000000000000000     
  0.92774772999999999       0.82498556999999995        0.0000000000000000     
   7.1970870000000006E-002  0.17510291000000000        0.0000000000000000     
  0.17422821999999999        7.2635640000000001E-002   0.0000000000000000     
  0.82510813000000005        7.2134840000000006E-002   0.0000000000000000     
  0.92754665000000003       0.17446275999999999        0.0000000000000000     
  0.17501022999999999       0.92789951999999998        0.0000000000000000     
   7.2464680000000004E-002  0.82554053000000005        0.0000000000000000     
  0.30731587999999999       0.50885354999999999        0.0000000000000000     
  0.59033407999999998       0.22171178999999999        0.0000000000000000     
  0.40109191999999999       0.78725542000000004        0.0000000000000000     
  0.35420917000000002       0.63754104000000000        0.0000000000000000     
  0.15983976999999999       0.56665573000000002        0.0000000000000000     
  0.84108459999999996       0.56757886999999996        0.0000000000000000     
  0.83902096000000004       0.43344338999999998        0.0000000000000000     
  0.43230028999999998       0.16004268999999999        0.0000000000000000     
  0.57536027999999995       0.83041363999999995        0.0000000000000000     
  0.15771898000000001       0.42747892999999998        0.0000000000000000     
  0.34021692999999997       0.34221559000000001        0.0000000000000000     
  0.56002271999999997       0.57501117999999996        0.0000000000000000     
  0.65344329000000001       0.78147597999999996        0.0000000000000000     
   0.0000000000000000        0.0000000000000000        0.0000000000000000     
   1.0000000000000000        0.0000000000000000        0.0000000000000000     
   1.0000000000000000        1.0000000000000000        0.0000000000000000     
   0.0000000000000000        1.0000000000000000        0.0000000000000000     
  0.11111111000000000        0.0000000000000000        0.0000000000000000     
  0.22222222000000000        0.0000000000000000        0.0000000000000000     
  0.33333332999999998        0.0000000000000000        0.0000000000000000     
  0.44444444000000000        0.0000000000000000        0.0000000000000000     
  0.55555555999999995        0.0000000000000000        0.0000000000000000     
  0.66666667000000002        0.0000000000000000        0.0000000000000000     
  0.77777777999999997        0.0000000000000000        0.0000000000000000     
  0.88888889000000004        0.0000000000000000        0.0000000000000000     
   1.0000000000000000       0.11111111000000000        0.0000000000000000     
   1.0000000000000000       0.22222222000000000        0.0000000000000000     
   1.0000000000000000       0.33333332999999998        0.0000000000000000     
   1.0000000000000000       0.44444444000000000        0.0000000000000000     
   1.0000000000000000       0.55555555999999995        0.0000000000000000     
   1.0000000000000000       0.66666667000000002        0.0000000000000000     
   1.0000000000000000       0.77777777999999997        0.0000000000000000     
   1.0000000000000000       0.88888889000000004        0.0000000000000000     
  0.88888889000000004        1.0000000000000000        0.0000000000000000     
  0.77777777999999997        1.0000000000000000        0.0000000000000000     
  0.66666667000000002        1.0000000000000000        0.0000000000000000     
  0.55555555999999995        1.0000000000000000        0.0000000000000000     
  0.44444444000000000        1.0000000000000000        0.0000000000000000     
  0.33333332999999998        1.0000000000000000        0.0000000000000000     
  0.22222222000000000        1.0000000000000000        0.0000000000000000     
  0.11111111000000000        1.0000000000000000        0.0000000000000000     
   0.0000000000000000       0.11111111000000000        0.0000000000000000     
   0.0000000000000000       0.22222222000000000        0.0000000000000000     
[...]
 CELL_DATA         354
 SCALARS C float
 LOOKUP_TABLE default
    0.78236676002896399229E+00
    0.11401322172077588135E+01
    0.56744706249532994580E+00
    0.63238039970006887369E+00
    0.89044844079625085076E+00
    0.99524592366351871675E+00
    0.11603392378815493569E+01
    0.10973775110717394199E+01
    0.11873590204683588389E+01
    0.11858130606882260061E+01
    0.11654829443888836682E+01
    0.11839137716778067588E+01
    0.11716102736126461359E+01
    0.11715365673111146627E+01
    0.11757482350671109028E+01
    0.11678000538579180745E+01
    0.11691501893914453269E+01
    0.11829428822009089295E+01
    0.11779544070615424189E+01
    0.11714955110071749722E+01
    0.11752934928104603607E+01
    0.11814913972844511836E+01
    0.11914983503723006741E+01
    0.11946822411072526293E+01
    0.11904588687196036023E+01
    0.11872786429955912713E+01
    0.11891420859272403554E+01
    0.11831205754244400463E+01
    0.11692068811769564807E+01
    0.10878923860484293051E+01
    0.88995579017915726894E+00
    0.99487959790636204538E+00
    0.78619104679709750361E+00
    0.68184847745601573354E+00
    0.57325334251454374002E+00
    0.61599074086549887586E+00
    0.56341053637388782693E+00
    0.57165402543537136015E+00
    0.61558772647818638113E+00
    0.58318839463859506456E+00
    0.63022523459462331807E+00
    0.63321037600200158479E+00
    0.65105968740923070293E+00
    0.63830315263542203308E+00
    0.63987265320911224098E+00
    0.59995455423518428972E+00
    0.57348270735270312493E+00
    0.58444285876296586668E+00
    0.56719083853028573472E+00
    0.55599955241906062753E+00
    0.58802427045862426525E+00
    0.57289623573177539395E+00
    0.82089544911369360936E+00
    0.84296790008896860247E+00
    0.91946018133558626850E+00
    0.87538130586840323666E+00
    0.92770656666355655329E+00
    0.90043828670070580333E+00
    0.85157489699706390152E+00
    0.87620820717781622289E+00
    0.80488181182948914660E+00
    0.73075365006638204335E+00
    0.62295597419362280789E+00
    0.67664424138685308474E+00
    0.58801750801099816890E+00
    0.55650660393631423695E+00
    0.58001178690497745549E+00
    0.56493614343432740910E+00
    0.11619617171552696355E+01
    0.11878266229046698932E+01
    0.11804341648451528446E+01
    0.11775269866492448223E+01
    0.11804923164889038478E+01
    0.11732553195861918915E+01
    0.11912900611343559820E+01
    0.11936969392273146795E+01
    0.12007689391482858632E+01
    0.11919991659896311820E+01
    0.11610580707374462683E+01
    0.11912745276583460718E+01
    0.10790534044034512107E+01
    0.11238447878233417399E+01
    0.11861838126607850974E+01
    0.11170481711279105497E+01
    0.11661295722174656042E+01
    0.11595923657770728088E+01
    0.11147939637284181025E+01
    0.11674585727829409620E+01
    0.11644018942411984430E+01
    0.11702644306882881153E+01
    0.11528744628874090239E+01
    0.11120881438542409292E+01
    0.10875168248560329598E+01
    0.94077145554274799188E+00
    0.91122847239223248028E+00
    0.10032218845171452237E+01
    0.11381407440138926468E+01
    0.11966430779693491004E+01
    0.11753473322844576465E+01
    0.11931732237769405724E+01
    0.11870284104742223619E+01
    0.11983100346647583834E+01
    0.11995095054194462314E+01
    0.11714526053190679189E+01
    0.11665540173752062536E+01
    0.11355717960613580519E+01
    0.11365312027972427344E+01
    0.11627548068244593082E+01
    0.11608978850559354967E+01
    0.11226496809834796142E+01
    0.91517688266452990042E+00
    0.11190359193697534401E+01
    0.10131835554516572806E+01
    0.99795506930624444664E+00
    0.11957664067250579620E+01
    0.11026863561060480379E+01
    0.11652548604506205443E+01
    0.11863852562879060315E+01
    0.11958287775138467524E+01
    0.11256754152744599118E+01
    0.11542406159896256845E+01
    0.74532846726228285661E+00
    0.85250914122911147786E+00
    0.66960368345133325363E+00
    0.87031781889962522847E+00
    0.93415784345474939254E+00
    0.68034467682003496591E+00
    0.73066506997085989283E+00
    0.11195234423084798880E+01
    0.11748576778176258451E+01
    0.10618130687263156453E+01
    0.11867478422601771548E+01
    0.11792498396892321377E+01
    0.10671636329834783830E+01
    0.11245075587614312695E+01
    0.11968915426707402716E+01
    0.11886569461311231599E+01
    0.11911158617294197448E+01
    0.11872892036350042311E+01
    0.11718708891806852712E+01
    0.11946900305618071148E+01
    0.11960778754398484480E+01
    0.63586322437112419159E+00
    0.61242498800828060190E+00
    0.56940002582042859025E+00
    0.71419423297680351137E+00
    0.69749196704364113675E+00
    0.57367340534193900226E+00
    0.57982868386422314888E+00
    0.11723355821314340730E+01
    0.11783610324566209382E+01
    0.11590734528092523359E+01
    0.11761587404115905198E+01
    0.11453243424073917822E+01
    0.11767159660995774040E+01
    0.11964748733256229674E+01
    0.11885606180983805391E+01
    0.11723907761952303552E+01
    0.11972727126166908818E+01
    0.11901452510587968714E+01
    0.11767822817821345094E+01
    0.11835770358327624141E+01
    0.11910539349345428128E+01
    0.11985512150451229640E+01
    0.11876623285373018035E+01
    0.78931412751453455812E+00
    0.90252509108186629305E+00
    0.78710668417340812208E+00
    0.89324044754274034563E+00
    0.95659557350288870747E+00
    0.11940225450870733948E+01
    0.11757468106006496722E+01
    0.11911894796957407383E+01
    0.12037726323189641420E+01
    0.11811902398779843271E+01
    0.11280917032008499490E+01
    0.11847576847113014953E+01
    0.11790704195325891757E+01
    0.11033353984303335693E+01
    0.11414691750651311253E+01
    0.11835968447954505756E+01
    0.11996100546496122341E+01
    0.11926430997587489369E+01
    0.11967924794912812025E+01
    0.11951046655396582175E+01
    0.10633768179983489333E+01
    0.11897447608759468274E+01
    0.11161018613811990452E+01
    0.11311468295207161017E+01
    0.11822321009773546496E+01
    0.11810883452528269100E+01
    0.11728707276987098140E+01
    0.11753799918828833349E+01
    0.11708696751681266779E+01
    0.11439492303780391946E+01
    0.76857044502255922325E+00
    0.10090617497943803471E+01
    0.86321193215627101125E+00
    0.82738336630121955828E+00
    0.95619043135058845451E+00
    0.75855719152584522025E+00
    0.67905176879949902258E+00
    0.77147334959784086283E+00
    0.68621870121833550282E+00
    0.84468419326258958879E+00
    0.11096831822000963186E+01
    0.11662093747242086028E+01
    0.11619907777979991970E+01
    0.11619039177655214878E+01
    0.11650386647053878608E+01
    0.11809939403588103346E+01
    0.11855611439928499529E+01
    0.11981797185096672020E+01
    0.11999581101482985623E+01
    0.11939977200866358498E+01
    0.11920487201431548829E+01
    0.12063408398172630331E+01
    0.12039118133119770526E+01
    0.11942512780605967215E+01
    0.11146769528276694317E+01
    0.10976871907793626093E+01
    0.10979802225942976168E+01
    0.11819911300815866273E+01
    0.10866671986472331568E+01
    0.11625451750590705124E+01
    0.67886950691607306219E+00
    0.72664265917778414483E+00
    0.86517229892417801818E+00
    0.84563669387236739539E+00
    0.86034742816762765916E+00
    0.97425186596609858469E+00
    0.99484869208618953440E+00
    0.10736925202649980626E+01
    0.11772943877931507650E+01
    0.12069177588715256366E+01
    0.11967304642119114266E+01
    0.12000864313125880756E+01
    0.11802324355863413885E+01
    0.11740409830982594386E+01
    0.11532014575785458632E+01
    0.11793236563737534706E+01
    0.11845400459727368769E+01
    0.10670223034099555193E+01
    0.11134557448398776369E+01
    0.11815093995847825159E+01
    0.11760613157150332508E+01
    0.82501305996364626694E+00
    0.70209585828767739901E+00
    0.65208134737021772320E+00
    0.11616494786772171288E+01
    0.10286828792492141993E+01
    0.10099565381319046686E+01
    0.12012592927634317963E+01
    0.11994762224795585404E+01
    0.11647931737179211265E+01
    0.11860793646064551332E+01
    0.12069673490912837810E+01
    0.12019693915210760693E+01
    0.99937761288841520102E+00
    0.10228768004719006601E+01
    0.78346355599630079780E+00
    0.11761285470283444621E+01
    0.11756373376349813498E+01
    0.11811156002458189640E+01
    0.73593499061351363988E+00
    0.71296898325341151459E+00
    0.59263750862818442844E+00
    0.68887835797256413706E+00
    0.61724702715334189840E+00
    0.57161496094824681968E+00
    0.11661738936425791735E+01
    0.11489428457754171653E+01
    0.11783374071795646998E+01
    0.11820272776772753343E+01
    0.11688280612360335553E+01
    0.11816064684207869817E+01
    0.12071634378770901286E+01
    0.11983833172880973272E+01
    0.99204803131794305759E+00
    0.11796318413460629149E+01
    0.11651704311774282452E+01
    0.10880608781630964899E+01
    0.11629712272007730611E+01
    0.11683113534978777359E+01
    0.11449228294029638597E+01
    0.11877478200765365646E+01
    0.11861241720758590734E+01
    0.94609905320587783795E+00
    0.10253321068343201894E+01
    0.60107281514220645136E+00
    0.63418954802399485349E+00
    0.11892691828144883459E+01
    0.11949207426183816594E+01
    0.55624909356777207936E+00
    0.55651888289972650803E+00
    0.11992992210806936448E+01
    0.10167094092731798760E+01
    0.10085283450326589794E+01
    0.11757706508585286098E+01
    0.80877369077461269686E+00
    0.11980859606019320651E+01
    0.11569255091910064515E+01
    0.88129119423183721604E+00
    0.11787800936003971497E+01
    0.11855602482987994684E+01
    0.11933477144697544059E+01
    0.11680658675910593480E+01
    0.11900434063182088185E+01
    0.81245292430935323047E+00
    0.90127324188025748075E+00
    0.11710833963455928863E+01
    0.12057353447801499868E+01
    0.11787332868833115818E+01
    0.10841724992740546796E+01
    0.11702036729072462506E+01
    0.11972631939429219106E+01
    0.11294415285916115099E+01
    0.99915997699015957068E+00
    0.76235221960114574191E+00
    0.70224636966189490916E+00
    0.11046751230142501932E+01
    0.10786532838330171735E+01
    0.56623017261957231394E+00
    0.56304391100665007741E+00
    0.66552632797424149391E+00
    0.65625162841603923436E+00
    0.99858887698389331433E+00
    0.11770269611962833611E+01
    0.12586642416617357387E+01
    0.12859529589516134340E+01
    0.12890837241386576828E+01
    0.12722838084318843777E+01
    0.12209418269716412198E+01
    0.11700506057906050472E+01
    0.11907257334892047407E+01
    0.11789053055716944840E+01
    0.11255019222145805635E+01
    0.96953190889716189815E+00
    0.77699299272364763524E+00
    0.61700170433302570228E+00
    0.55560434278818804366E+00
    0.57254792044732527589E+00
    0.58299311376593809797E+00
    0.58213120370590032415E+00
    0.56252469802007398769E+00
    0.55509904968203427345E+00
    0.58128467439778652714E+00
    0.77347592627744221616E+00
    0.81607340495157432159E+00
    0.79570583623985680077E+00
    0.73526507479076452789E+00
    0.64413427918964250019E+00
    0.57437960763861506397E+00
    0.56765955126433942368E+00
