# vtk DataFile Version 3.0
LAPLACIEN  2D
ASCII
DATASET UNSTRUCTURED_GRID
 POINTS         391  float
  0.50371505999999999       0.50367786999999997        0.0000000000000000     
  0.29013556000000001       0.29014535000000002        0.0000000000000000     
  0.70165584999999997       0.71206597999999999        0.0000000000000000     
  0.70304188999999995       0.30176619999999998        0.0000000000000000     
  0.30920671999999999       0.71149227999999998        0.0000000000000000     
  0.79044983999999996       0.49884783999999999        0.0000000000000000     
  0.49102621000000002       0.20968644000000000        0.0000000000000000     
  0.49912957000000002       0.77208717000000004        0.0000000000000000     
  0.21724072999999999       0.48989389000000000        0.0000000000000000     
  0.83255933999999998       0.83046598000000005        0.0000000000000000     
  0.16646774000000000       0.17015694000000001        0.0000000000000000     
  0.83054514999999995       0.16736480000000001        0.0000000000000000     
  0.16953130999999999       0.83265739000000005        0.0000000000000000     
  0.42166445000000002       0.36345201999999999        0.0000000000000000     
  0.64462200999999997       0.56347807999999999        0.0000000000000000     
  0.35324633999999999       0.56311191000000005        0.0000000000000000     
  0.65456411000000003       0.84856860999999995        0.0000000000000000     
  0.35141477999999998       0.15563974000000000        0.0000000000000000     
  0.15290967000000000       0.35206625000000003        0.0000000000000000     
  0.82942241000000005       0.34936866000000000        0.0000000000000000     
  0.84390527000000004       0.64441694999999999        0.0000000000000000     
  0.63699174999999997       0.14284276000000001        0.0000000000000000     
  0.15620682999999999       0.64648446999999998        0.0000000000000000     
  0.36426062999999997       0.85756310999999996        0.0000000000000000     
  0.63489340999999999       0.40519052000000000        0.0000000000000000     
  0.52518872999999999       0.65957078000000002        0.0000000000000000     
  0.32158959999999998       0.42298103999999997        0.0000000000000000     
  0.58861710000000000       0.31711036999999997        0.0000000000000000     
  0.42078418000000001       0.69497151999999995        0.0000000000000000     
  0.48608786999999998       0.89334152000000000        0.0000000000000000     
   9.7084320000000002E-002  0.50000000000000000        0.0000000000000000     
  0.90291568000000000       0.50000000000000000        0.0000000000000000     
  0.51392453000000005       0.10668648999999999        0.0000000000000000     
  0.59792566999999996       0.73122754000000001        0.0000000000000000     
  0.74510058999999995       0.41124730999999998        0.0000000000000000     
  0.73212551999999997       0.90191560000000004        0.0000000000000000     
   9.7784830000000003E-002  0.26957329000000002        0.0000000000000000     
  0.26711221000000002        9.8671499999999995E-002   0.0000000000000000     
  0.90191560000000004       0.26787448000000003        0.0000000000000000     
  0.90118569000000004       0.73039821000000005        0.0000000000000000     
  0.73122947000000005        9.8017859999999998E-002   0.0000000000000000     
   9.8084400000000002E-002  0.73212551999999997        0.0000000000000000     
  0.26957329000000002       0.90221516999999996        0.0000000000000000     
  0.39283522999999998       0.25360379000000000        0.0000000000000000     
  0.74480864000000002       0.60495284999999999        0.0000000000000000     
  0.25505132000000003       0.60593640999999998        0.0000000000000000     
  0.52159297999999998       0.40671636000000000        0.0000000000000000     
  0.40768852000000000       0.47699891000000000        0.0000000000000000     
   9.1467049999999994E-002   9.1876959999999994E-002   0.0000000000000000     
  0.90842484999999995       0.90819225000000003        0.0000000000000000     
  0.90820104999999995        9.1566729999999999E-002   0.0000000000000000     
   9.1807449999999999E-002  0.90843574000000005        0.0000000000000000     
  0.27098960000000000       0.20527094000000001        0.0000000000000000     
  0.73457293999999995       0.79835387000000002        0.0000000000000000     
  0.79817773000000003       0.25713470999999999        0.0000000000000000     
  0.20747797000000001       0.72863946000000002        0.0000000000000000     
  0.20175195000000001       0.27583914999999998        0.0000000000000000     
  0.79603889000000005       0.72159035000000005        0.0000000000000000     
  0.71761666000000002       0.19748431999999999        0.0000000000000000     
  0.28462607000000001       0.80251899999999998        0.0000000000000000     
  0.69134598999999997       0.49261972999999998        0.0000000000000000     
  0.44720578999999999       0.58582935999999997        0.0000000000000000     
  0.24242269999999999       0.37228174000000003        0.0000000000000000     
  0.38265623999999998       0.93072131999999996        0.0000000000000000     
  0.60971754000000000       0.91988369000000003        0.0000000000000000     
   7.9163609999999995E-002  0.60979116000000000        0.0000000000000000     
  0.92010649000000000       0.61081183999999999        0.0000000000000000     
  0.61954008999999999        7.1530830000000004E-002   0.0000000000000000     
  0.91882012999999996       0.38917363999999999        0.0000000000000000     
  0.39086346000000000        8.0652249999999995E-002   0.0000000000000000     
   7.9183480000000001E-002  0.38966213000000000        0.0000000000000000     
  0.59114111999999996       0.49294315000000000        0.0000000000000000     
  0.63337980999999999       0.64485914000000000        0.0000000000000000     
  0.50012352000000004       0.29676539000000002        0.0000000000000000     
  0.82552601000000003       0.92753492000000004        0.0000000000000000     
  0.92774772999999999       0.82498556999999995        0.0000000000000000     
   7.1970870000000006E-002  0.17510291000000000        0.0000000000000000     
  0.17422821999999999        7.2635640000000001E-002   0.0000000000000000     
  0.82510813000000005        7.2134840000000006E-002   0.0000000000000000     
  0.92754665000000003       0.17446275999999999        0.0000000000000000     
  0.17501022999999999       0.92789951999999998        0.0000000000000000     
   7.2464680000000004E-002  0.82554053000000005        0.0000000000000000     
  0.30731587999999999       0.50885354999999999        0.0000000000000000     
  0.59033407999999998       0.22171178999999999        0.0000000000000000     
  0.40109191999999999       0.78725542000000004        0.0000000000000000     
  0.35420917000000002       0.63754104000000000        0.0000000000000000     
  0.15983976999999999       0.56665573000000002        0.0000000000000000     
  0.84108459999999996       0.56757886999999996        0.0000000000000000     
  0.83902096000000004       0.43344338999999998        0.0000000000000000     
  0.43230028999999998       0.16004268999999999        0.0000000000000000     
  0.57536027999999995       0.83041363999999995        0.0000000000000000     
  0.15771898000000001       0.42747892999999998        0.0000000000000000     
  0.34021692999999997       0.34221559000000001        0.0000000000000000     
  0.56002271999999997       0.57501117999999996        0.0000000000000000     
  0.65344329000000001       0.78147597999999996        0.0000000000000000     
   0.0000000000000000        0.0000000000000000        0.0000000000000000     
   1.0000000000000000        0.0000000000000000        0.0000000000000000     
   1.0000000000000000        1.0000000000000000        0.0000000000000000     
   0.0000000000000000        1.0000000000000000        0.0000000000000000     
  0.11111111000000000        0.0000000000000000        0.0000000000000000     
  0.22222222000000000        0.0000000000000000        0.0000000000000000     
  0.33333332999999998        0.0000000000000000        0.0000000000000000     
  0.44444444000000000        0.0000000000000000        0.0000000000000000     
  0.55555555999999995        0.0000000000000000        0.0000000000000000     
  0.66666667000000002        0.0000000000000000        0.0000000000000000     
  0.77777777999999997        0.0000000000000000        0.0000000000000000     
  0.88888889000000004        0.0000000000000000        0.0000000000000000     
   1.0000000000000000       0.11111111000000000        0.0000000000000000     
   1.0000000000000000       0.22222222000000000        0.0000000000000000     
   1.0000000000000000       0.33333332999999998        0.0000000000000000     
   1.0000000000000000       0.44444444000000000        0.0000000000000000     
   1.0000000000000000       0.55555555999999995        0.0000000000000000     
   1.0000000000000000       0.66666667000000002        0.0000000000000000     
   1.0000000000000000       0.77777777999999997        0.0000000000000000     
   1.0000000000000000       0.88888889000000004        0.0000000000000000     
  0.88888889000000004        1.0000000000000000        0.0000000000000000     
  0.77777777999999997        1.0000000000000000        0.0000000000000000     
  0.66666667000000002        1.0000000000000000        0.0000000000000000     
  0.55555555999999995        1.0000000000000000        0.0000000000000000     
  0.44444444000000000        1.0000000000000000        0.0000000000000000     
  0.33333332999999998        1.0000000000000000        0.0000000000000000     
  0.22222222000000000        1.0000000000000000        0.0000000000000000     
  0.11111111000000000        1.0000000000000000        0.0000000000000000     
   0.0000000000000000       0.11111111000000000        0.0000000000000000     
   0.0000000000000000       0.22222222000000000        0.0000000000000000     
[...]
 CELL_DATA         354
 SCALARS C float
 LOOKUP_TABLE default
    0.74252612823605956827E+00
    0.11471591119748749676E+01
    0.51937667779638185817E+00
    0.59889616931668898658E+00
    0.85994594062738238804E+00
    0.97491139630547907213E+00
    0.12362892336072888178E+01
    0.11079363505924204603E+01
    0.13430243375540220629E+01
    0.14129557016337086495E+01
    0.14771021137949347235E+01
    0.14633004076286395545E+01
    0.14867868977093858796E+01
    0.14906676496038613333E+01
    0.14830798572555234927E+01
    0.14875044642483403745E+01
    0.14545736225319223500E+01
    0.14091277428354582746E+01
    0.12603995528671765314E+01
    0.13339694600488343212E+01
    0.12175677469851584611E+01
    0.12548866966167158132E+01
    0.13382444685271748241E+01
    0.12992811443766569823E+01
    0.13475776514277555407E+01
    0.13274673566414201265E+01
    0.12580344152833742299E+01
    0.12961732596288881858E+01
    0.11854007916687685498E+01
    0.10803310996903674468E+01
    0.85781381948465607046E+00
    0.97261817635534209003E+00
    0.74678641633542142131E+00
    0.63487273297569513097E+00
    0.52207653370603690490E+00
    0.56617699280482625124E+00
    0.51319820391942683191E+00
    0.52078932898938790075E+00
    0.56546299013021283919E+00
    0.53171397933305064587E+00
    0.58014412883004717880E+00
    0.58335177649280689494E+00
    0.60212000569987988996E+00
    0.58859717249892562485E+00
    0.59074641169400421425E+00
    0.54843782093146709045E+00
    0.52186640208282619735E+00
    0.53277198750599497057E+00
    0.51708326416299243977E+00
    0.50780600647120333058E+00
    0.54727966031093278065E+00
    0.52842204927153957339E+00
    0.78356336435491757975E+00
    0.80692778248898289206E+00
    0.88958131219072134055E+00
    0.84135592325579344752E+00
    0.89807627998809036463E+00
    0.86854762220209780210E+00
    0.81615430317463144583E+00
    0.84275492147320685277E+00
    0.76639645739593786899E+00
    0.68651539479374179553E+00
    0.57229576173136587069E+00
    0.62937187438422004249E+00
    0.53715778482025655638E+00
    0.50592067960263875648E+00
    0.53690071265229766251E+00
    0.51793120657624469594E+00
    0.14362601789605327074E+01
    0.14890687283990491352E+01
    0.14863265586671865481E+01
    0.14736375998407409416E+01
    0.14936630117875793200E+01
    0.14870807356836104329E+01
    0.14674555560624682471E+01
    0.14246683380242488592E+01
    0.14525753606448770228E+01
    0.14914859179209483120E+01
    0.12189035569520940694E+01
    0.13100818012446175942E+01
    0.10741709435452857502E+01
    0.11585700946268389089E+01
    0.13179703605543813261E+01
    0.11212374185459954568E+01
    0.14457450421515942729E+01
    0.13226661176739513692E+01
    0.11985156687892619676E+01
    0.14153704079621352019E+01
    0.14367597985238447222E+01
    0.13842893503725473003E+01
    0.12650697132976480574E+01
    0.11265759810174211797E+01
    0.10889013238550564466E+01
    0.91830608079391462528E+00
    0.88525622130306369506E+00
    0.98650421456910064588E+00
    0.11634898452977182615E+01
    0.14236069820264833918E+01
    0.14889575931137779552E+01
    0.14543503179898076283E+01
    0.14908850115936265190E+01
    0.14215304903585663787E+01
    0.14804850346014801765E+01
    0.14111865073926763703E+01
    0.14052150066640525239E+01
    0.12981103321438218767E+01
    0.12987447396067446359E+01
    0.14289576831033736770E+01
    0.12290286786938910968E+01
    0.11539264078038633521E+01
    0.89096742883621404818E+00
    0.11437229493583787043E+01
    0.99892108277933266969E+00
    0.98209816084619072640E+00
    0.13961343155169676500E+01
    0.11026231329168985074E+01
    0.12239229116246583828E+01
    0.13501849333625812744E+01
    0.13500816546845071375E+01
    0.11284043505408938302E+01
    0.12222182674433670346E+01
    0.70351888188975497673E+00
    0.81974730433306342015E+00
    0.62316989295656188830E+00
    0.84061758559166965821E+00
    0.91074597062318540797E+00
    0.63399610856141208615E+00
    0.68777068819974562786E+00
    0.11354480109299713853E+01
    0.12897954198218566368E+01
    0.10503253254862636723E+01
    0.13398628299064565539E+01
    0.12784703244370452246E+01
    0.10544392545979834885E+01
    0.11571981629969427807E+01
    0.14704532308217526104E+01
    0.14932247425525546625E+01
    0.14137962427443218072E+01
    0.14922151116663870951E+01
    0.14796375089209088394E+01
    0.14599092516698863875E+01
    0.14292467001257775916E+01
    0.58641940012796933690E+00
    0.56162075157307289608E+00
    0.51885504160450457434E+00
    0.67090167523331645238E+00
    0.65258800584613396722E+00
    0.52215133875467301117E+00
    0.52818706153378935930E+00
    0.14797869296978261033E+01
    0.14419070016997861394E+01
    0.13889618271058945531E+01
    0.14697547076525516729E+01
    0.13489297758559335438E+01
    0.14767094479650815231E+01
    0.14631297768501951850E+01
    0.14935593924279659817E+01
    0.14894160105960121410E+01
    0.14587551665442151094E+01
    0.14919209539442745971E+01
    0.13051671761437497743E+01
    0.14620291339846878120E+01
    0.14350814305345114263E+01
    0.14090121363574232838E+01
    0.13457393979849765486E+01
    0.75252755523033199037E+00
    0.87745778390667150681E+00
    0.75039972897361539861E+00
    0.86617062026348368153E+00
    0.93619122214279426597E+00
    0.14441356397033802139E+01
    0.14882027742672538917E+01
    0.14740922653576962187E+01
    0.14869133862250272227E+01
    0.14910937417118430570E+01
    0.11422674342535767966E+01
    0.12771257320905915478E+01
    0.13111023828001309166E+01
    0.11002893850651231933E+01
    0.12007632508438468300E+01
    0.14839257421410696480E+01
    0.14788840798804316901E+01
    0.14907280926416741629E+01
    0.14630587228902391939E+01
    0.14903519011009676021E+01
    0.10564825590161075475E+01
    0.12997078498546312808E+01
    0.11491606304486696732E+01
    0.11592231089481292994E+01
    0.12826799649683815474E+01
    0.14432142044463760477E+01
    0.14718537693602751215E+01
    0.14275036003497620918E+01
    0.14713114087241996319E+01
    0.13577776608352229992E+01
    0.73025005811598653338E+00
    0.99308815105313563709E+00
    0.83222091857935287518E+00
    0.79433575246641863199E+00
    0.93471515952160255658E+00
    0.71679936837499647062E+00
    0.63303418875616257466E+00
    0.73179464183430154023E+00
    0.63976654432888946378E+00
    0.81043062988740000030E+00
    0.12140722852142802335E+01
    0.14090143059599220532E+01
    0.13227624672148243778E+01
    0.14304633802266057963E+01
    0.14066734344109930177E+01
    0.13038872087528048382E+01
    0.12911558318473133067E+01
    0.14174170110262358513E+01
    0.13931937328683106081E+01
    0.14434582988244435420E+01
    0.14920192940506251666E+01
    0.14498367736239241577E+01
    0.14504001162260318214E+01
    0.14919898556477244611E+01
    0.12045748956205610813E+01
    0.11436607061406829366E+01
    0.11373064721525738552E+01
    0.13493846455653351057E+01
    0.10809565674048693396E+01
    0.12571287895480991459E+01
    0.63185120413473883083E+00
    0.68327648750384661902E+00
    0.83396848223351949247E+00
    0.81343821290211759667E+00
    0.82844157092896864025E+00
    0.95225890469676222061E+00
    0.97629950759580341746E+00
    0.10699117718632920049E+01
    0.12322581380290809072E+01
    0.13736970347756511934E+01
    0.13494807043934677893E+01
    0.14266318710258745206E+01
    0.14859878265511452522E+01
    0.14887363731570673053E+01
    0.13682443359629210544E+01
    0.14742224043537739409E+01
    0.13127225338402463972E+01
    0.10593798733786798927E+01
    0.11170945944898071911E+01
    0.14776350546239525041E+01
    0.14892198180438414035E+01
    0.79138243871459268419E+00
    0.65730935032921533612E+00
    0.60371754750988415594E+00
    0.12069672418064674169E+01
    0.10113814045270910214E+01
    0.98993412343670916798E+00
    0.14047207638050531742E+01
    0.14307140452276425613E+01
    0.12276983442539328717E+01
    0.14833148823298920593E+01
    0.14258881893000252550E+01
    0.14061268980281642627E+01
    0.98343536857490732039E+00
    0.10083086008644390752E+01
    0.74463977152406002347E+00
    0.14761319445183400667E+01
    0.14954496390670244388E+01
    0.14696822562478417673E+01
    0.69440717259604656242E+00
    0.66939941324072060880E+00
    0.54160042966756083427E+00
    0.64358821615212891132E+00
    0.56700101924024237654E+00
    0.52006790118988421856E+00
    0.14780932636498436139E+01
    0.13642290893794812856E+01
    0.14681993872716454508E+01
    0.14844954034662700693E+01
    0.12494148047593969242E+01
    0.14711436465209803970E+01
    0.14080047244858213684E+01
    0.13840624311676235081E+01
    0.97454576647239199438E+00
    0.13075280878603998680E+01
    0.12273868529950060502E+01
    0.10865491670860192297E+01
    0.14392242049273273885E+01
    0.14079564828171613478E+01
    0.12737709923810860424E+01
    0.14834274362144519444E+01
    0.14660424630255373124E+01
    0.92054460561373252503E+00
    0.10097718588759012626E+01
    0.55044088940635049756E+00
    0.58540429246937797370E+00
    0.13800289004053396535E+01
    0.13452866412173309918E+01
    0.50677651494482423011E+00
    0.50645077101196833702E+00
    0.13959363374420821202E+01
    0.10038280741122580508E+01
    0.99486694999022295960E+00
    0.14646055827588986276E+01
    0.77312186250711634194E+00
    0.13809669685386141147E+01
    0.13403111210756257776E+01
    0.85075790167446019296E+00
    0.14747432024018409802E+01
    0.13685088184889988572E+01
    0.14772545699029682176E+01
    0.12950374759737395269E+01
    0.14701495428736028881E+01
    0.77769278632412519592E+00
    0.87462837698587736490E+00
    0.12503389247184946154E+01
    0.14479097134772980215E+01
    0.14896169404395804836E+01
    0.10789403872330092238E+01
    0.14889663016133680706E+01
    0.14555220118528662265E+01
    0.12015966291172415215E+01
    0.98309271927516472811E+00
    0.72143985367373986151E+00
    0.65549628214123978331E+00
    0.11036115475667078734E+01
    0.10630915915166729846E+01
    0.51881738266872878818E+00
    0.51700366907780948011E+00
    0.63765287161083039624E+00
    0.62589267694598171854E+00
    0.97746837984468715188E+00
    0.12293015666370072925E+01
    0.13941429420776376702E+01
    0.14661839756229624321E+01
    0.14743321623154130862E+01
    0.14361303817385593362E+01
    0.13138133102672728825E+01
    0.11912905052937134975E+01
    0.12526586083913153757E+01
    0.12250822104508938271E+01
    0.11231247498493417414E+01
    0.94241682552500127823E+00
    0.73558146698422532950E+00
    0.56724453488424630976E+00
    0.50483391491624407532E+00
    0.52015914021289333391E+00
    0.53036645080303945754E+00
    0.52962361171090932555E+00
    0.51048588342568212983E+00
    0.50569559526881235900E+00
    0.53971302546478228113E+00
    0.73087820135901648833E+00
    0.77598068912097561967E+00
    0.75415456882662212923E+00
    0.69002390504203203747E+00
    0.59402013287382371409E+00
    0.52276152839801537375E+00
    0.52213187590462961651E+00
