# vtk DataFile Version 3.0
LAPLACIEN  2D
ASCII
DATASET UNSTRUCTURED_GRID
 POINTS         391  float
  0.50371505999999999       0.50367786999999997        0.0000000000000000     
  0.29013556000000001       0.29014535000000002        0.0000000000000000     
  0.70165584999999997       0.71206597999999999        0.0000000000000000     
  0.70304188999999995       0.30176619999999998        0.0000000000000000     
  0.30920671999999999       0.71149227999999998        0.0000000000000000     
  0.79044983999999996       0.49884783999999999        0.0000000000000000     
  0.49102621000000002       0.20968644000000000        0.0000000000000000     
  0.49912957000000002       0.77208717000000004        0.0000000000000000     
  0.21724072999999999       0.48989389000000000        0.0000000000000000     
  0.83255933999999998       0.83046598000000005        0.0000000000000000     
  0.16646774000000000       0.17015694000000001        0.0000000000000000     
  0.83054514999999995       0.16736480000000001        0.0000000000000000     
  0.16953130999999999       0.83265739000000005        0.0000000000000000     
  0.42166445000000002       0.36345201999999999        0.0000000000000000     
  0.64462200999999997       0.56347807999999999        0.0000000000000000     
  0.35324633999999999       0.56311191000000005        0.0000000000000000     
  0.65456411000000003       0.84856860999999995        0.0000000000000000     
  0.35141477999999998       0.15563974000000000        0.0000000000000000     
  0.15290967000000000       0.35206625000000003        0.0000000000000000     
  0.82942241000000005       0.34936866000000000        0.0000000000000000     
  0.84390527000000004       0.64441694999999999        0.0000000000000000     
  0.63699174999999997       0.14284276000000001        0.0000000000000000     
  0.15620682999999999       0.64648446999999998        0.0000000000000000     
  0.36426062999999997       0.85756310999999996        0.0000000000000000     
  0.63489340999999999       0.40519052000000000        0.0000000000000000     
  0.52518872999999999       0.65957078000000002        0.0000000000000000     
  0.32158959999999998       0.42298103999999997        0.0000000000000000     
  0.58861710000000000       0.31711036999999997        0.0000000000000000     
  0.42078418000000001       0.69497151999999995        0.0000000000000000     
  0.48608786999999998       0.89334152000000000        0.0000000000000000     
   9.7084320000000002E-002  0.50000000000000000        0.0000000000000000     
  0.90291568000000000       0.50000000000000000        0.0000000000000000     
  0.51392453000000005       0.10668648999999999        0.0000000000000000     
  0.59792566999999996       0.73122754000000001        0.0000000000000000     
  0.74510058999999995       0.41124730999999998        0.0000000000000000     
  0.73212551999999997       0.90191560000000004        0.0000000000000000     
   9.7784830000000003E-002  0.26957329000000002        0.0000000000000000     
  0.26711221000000002        9.8671499999999995E-002   0.0000000000000000     
  0.90191560000000004       0.26787448000000003        0.0000000000000000     
  0.90118569000000004       0.73039821000000005        0.0000000000000000     
  0.73122947000000005        9.8017859999999998E-002   0.0000000000000000     
   9.8084400000000002E-002  0.73212551999999997        0.0000000000000000     
  0.26957329000000002       0.90221516999999996        0.0000000000000000     
  0.39283522999999998       0.25360379000000000        0.0000000000000000     
  0.74480864000000002       0.60495284999999999        0.0000000000000000     
  0.25505132000000003       0.60593640999999998        0.0000000000000000     
  0.52159297999999998       0.40671636000000000        0.0000000000000000     
  0.40768852000000000       0.47699891000000000        0.0000000000000000     
   9.1467049999999994E-002   9.1876959999999994E-002   0.0000000000000000     
  0.90842484999999995       0.90819225000000003        0.0000000000000000     
  0.90820104999999995        9.1566729999999999E-002   0.0000000000000000     
   9.1807449999999999E-002  0.90843574000000005        0.0000000000000000     
  0.27098960000000000       0.20527094000000001        0.0000000000000000     
  0.73457293999999995       0.79835387000000002        0.0000000000000000     
  0.79817773000000003       0.25713470999999999        0.0000000000000000     
  0.20747797000000001       0.72863946000000002        0.0000000000000000     
  0.20175195000000001       0.27583914999999998        0.0000000000000000     
  0.79603889000000005       0.72159035000000005        0.0000000000000000     
  0.71761666000000002       0.19748431999999999        0.0000000000000000     
  0.28462607000000001       0.80251899999999998        0.0000000000000000     
  0.69134598999999997       0.49261972999999998        0.0000000000000000     
  0.44720578999999999       0.58582935999999997        0.0000000000000000     
  0.24242269999999999       0.37228174000000003        0.0000000000000000     
  0.38265623999999998       0.93072131999999996        0.0000000000000000     
  0.60971754000000000       0.91988369000000003        0.0000000000000000     
   7.9163609999999995E-002  0.60979116000000000        0.0000000000000000     
  0.92010649000000000       0.61081183999999999        0.0000000000000000     
  0.61954008999999999        7.1530830000000004E-002   0.0000000000000000     
  0.91882012999999996       0.38917363999999999        0.0000000000000000     
  0.39086346000000000        8.0652249999999995E-002   0.0000000000000000     
   7.9183480000000001E-002  0.38966213000000000        0.0000000000000000     
  0.59114111999999996       0.49294315000000000        0.0000000000000000     
  0.63337980999999999       0.64485914000000000        0.0000000000000000     
  0.50012352000000004       0.29676539000000002        0.0000000000000000     
  0.82552601000000003       0.92753492000000004        0.0000000000000000     
  0.92774772999999999       0.82498556999999995        0.0000000000000000     
   7.1970870000000006E-002  0.17510291000000000        0.0000000000000000     
  0.17422821999999999        7.2635640000000001E-002   0.0000000000000000     
  0.82510813000000005        7.2134840000000006E-002   0.0000000000000000     
  0.92754665000000003       0.17446275999999999        0.0000000000000000     
  0.17501022999999999       0.92789951999999998        0.0000000000000000     
   7.2464680000000004E-002  0.82554053000000005        0.0000000000000000     
  0.30731587999999999       0.50885354999999999        0.0000000000000000     
  0.59033407999999998       0.22171178999999999        0.0000000000000000     
  0.40109191999999999       0.78725542000000004        0.0000000000000000     
  0.35420917000000002       0.63754104000000000        0.0000000000000000     
  0.15983976999999999       0.56665573000000002        0.0000000000000000     
  0.84108459999999996       0.56757886999999996        0.0000000000000000     
  0.83902096000000004       0.43344338999999998        0.0000000000000000     
  0.43230028999999998       0.16004268999999999        0.0000000000000000     
  0.57536027999999995       0.83041363999999995        0.0000000000000000     
  0.15771898000000001       0.42747892999999998        0.0000000000000000     
  0.34021692999999997       0.34221559000000001        0.0000000000000000     
  0.56002271999999997       0.57501117999999996        0.0000000000000000     
  0.65344329000000001       0.78147597999999996        0.0000000000000000     
   0.0000000000000000        0.0000000000000000        0.0000000000000000     
   1.0000000000000000        0.0000000000000000        0.0000000000000000     
   1.0000000000000000        1.0000000000000000        0.0000000000000000     
   0.0000000000000000        1.0000000000000000        0.0000000000000000     
  0.11111111000000000        0.0000000000000000        0.0000000000000000     
  0.22222222000000000        0.0000000000000000        0.0000000000000000     
  0.33333332999999998        0.0000000000000000        0.0000000000000000     
  0.44444444000000000        0.0000000000000000        0.0000000000000000     
  0.55555555999999995        0.0000000000000000        0.0000000000000000     
  0.66666667000000002        0.0000000000000000        0.0000000000000000     
  0.77777777999999997        0.0000000000000000        0.0000000000000000     
  0.88888889000000004        0.0000000000000000        0.0000000000000000     
   1.0000000000000000       0.11111111000000000        0.0000000000000000     
   1.0000000000000000       0.22222222000000000        0.0000000000000000     
   1.0000000000000000       0.33333332999999998        0.0000000000000000     
   1.0000000000000000       0.44444444000000000        0.0000000000000000     
   1.0000000000000000       0.55555555999999995        0.0000000000000000     
   1.0000000000000000       0.66666667000000002        0.0000000000000000     
   1.0000000000000000       0.77777777999999997        0.0000000000000000     
   1.0000000000000000       0.88888889000000004        0.0000000000000000     
  0.88888889000000004        1.0000000000000000        0.0000000000000000     
  0.77777777999999997        1.0000000000000000        0.0000000000000000     
  0.66666667000000002        1.0000000000000000        0.0000000000000000     
  0.55555555999999995        1.0000000000000000        0.0000000000000000     
  0.44444444000000000        1.0000000000000000        0.0000000000000000     
  0.33333332999999998        1.0000000000000000        0.0000000000000000     
  0.22222222000000000        1.0000000000000000        0.0000000000000000     
  0.11111111000000000        1.0000000000000000        0.0000000000000000     
   0.0000000000000000       0.11111111000000000        0.0000000000000000     
   0.0000000000000000       0.22222222000000000        0.0000000000000000     
[...]
 CELL_DATA         354
 SCALARS C float
 LOOKUP_TABLE default
    0.74253265943238155877E+00
    0.11471652820532631800E+01
    0.51937804798281561602E+00
    0.59889341648481075886E+00
    0.85994676171965422906E+00
    0.97491339265541876458E+00
    0.12362927519526489828E+01
    0.11079394559163557865E+01
    0.13430256968659062267E+01
    0.14129552462258390122E+01
    0.14771012372475988972E+01
    0.14632999056391153836E+01
    0.14867853803913009259E+01
    0.14906658571002830982E+01
    0.14830783725375928928E+01
    0.14875024127753613268E+01
    0.14545737427288112364E+01
    0.14091286080461919994E+01
    0.12603993710787311233E+01
    0.13339695513272147309E+01
    0.12175708050636857571E+01
    0.12548890655999631605E+01
    0.13382476345095575265E+01
    0.12992843507040805484E+01
    0.13475815950847027658E+01
    0.13274709972265557045E+01
    0.12580378770121518617E+01
    0.12961762271447625494E+01
    0.11854061809727929333E+01
    0.10803363592549481975E+01
    0.85781984487199602896E+00
    0.97262297814713183364E+00
    0.74679341707138102713E+00
    0.63487756080624135890E+00
    0.52207932304761728304E+00
    0.56618073614655139991E+00
    0.51320004157208098938E+00
    0.52079227763873447987E+00
    0.56546775822760264596E+00
    0.53171741426848107004E+00
    0.58015085153934919937E+00
    0.58335816084647462709E+00
    0.60212718682843369145E+00
    0.58860355263941210868E+00
    0.59075209784374893562E+00
    0.54844251379841235661E+00
    0.52187093528290018352E+00
    0.53277730888022278855E+00
    0.51708613047708396060E+00
    0.50780721055098243522E+00
    0.54727947746962724018E+00
    0.52842329276943356131E+00
    0.78356883861303683325E+00
    0.80693272365082890918E+00
    0.88958807827166641591E+00
    0.84136208283709212896E+00
    0.89808525380518844372E+00
    0.86855575739103041411E+00
    0.81616116740546440500E+00
    0.84276159787039295335E+00
    0.76640407859881809483E+00
    0.68652184880743016837E+00
    0.57230217726744736506E+00
    0.62937827844687499468E+00
    0.53716250531521259060E+00
    0.50592309699906867770E+00
    0.53690185720775973621E+00
    0.51793341219859390101E+00
    0.14362572863487610419E+01
    0.14890646966132821127E+01
    0.14863217910077737294E+01
    0.14736342595467495364E+01
    0.14936589800633419678E+01
    0.14870777685590508277E+01
    0.14674515456351593379E+01
    0.14246628799684173394E+01
    0.14525707333896149542E+01
    0.14914818436049386285E+01
    0.12189035778978989377E+01
    0.13100802988300341845E+01
    0.10741690184139147668E+01
    0.11585687316145669712E+01
    0.13179659190640666822E+01
    0.11212397795849255999E+01
    0.14457429417552074558E+01
    0.13226693675563629959E+01
    0.11985341204226362954E+01
    0.14153677334990208969E+01
    0.14367578151149529297E+01
    0.13842854870853327220E+01
    0.12650782785220915372E+01
    0.11265695452937491972E+01
    0.10888971677415768546E+01
    0.91830486921572163084E+00
    0.88525620341747535136E+00
    0.98650253920395947205E+00
    0.11634821925549410082E+01
    0.14236029313965266052E+01
    0.14889542430608986301E+01
    0.14543463135060408220E+01
    0.14908807461477295853E+01
    0.14215280306536566268E+01
    0.14804805543823182923E+01
    0.14111863577354555321E+01
    0.14052155260020042782E+01
    0.12981104614219474147E+01
    0.12987442115627767514E+01
    0.14289543098909536223E+01
    0.12290248005100834483E+01
    0.11539247602595992248E+01
    0.89096265490781756391E+00
    0.11437214670456592458E+01
    0.99891741574606374154E+00
    0.98209755122546205097E+00
    0.13961287190496860511E+01
    0.11026206033512901961E+01
    0.12239197262922596465E+01
    0.13501826922140436338E+01
    0.13500756139092164876E+01
    0.11284067200422636112E+01
    0.12222161771578361478E+01
    0.70352131566909137383E+00
    0.81974920876299894879E+00
    0.62317263977993109236E+00
    0.84061511715446091131E+00
    0.91074360306434720691E+00
    0.63400207638997885251E+00
    0.68777540785055801820E+00
    0.11354474129059515253E+01
    0.12897930081124948654E+01
    0.10503254699965172136E+01
    0.13398566893094918662E+01
    0.12784649562577443671E+01
    0.10544421654351872064E+01
    0.11571985839933951468E+01
    0.14704491067843941110E+01
    0.14932209122542139390E+01
    0.14137936761961915622E+01
    0.14922105187617327182E+01
    0.14796343839702092993E+01
    0.14599054484124298625E+01
    0.14292447899205078521E+01
    0.58642362990883656337E+00
    0.56162546490149944933E+00
    0.51885815333857043807E+00
    0.67090205144211290111E+00
    0.65258922623222537229E+00
    0.52215647729175129754E+00
    0.52819255564748746057E+00
    0.14797836087160987084E+01
    0.14419044584215443550E+01
    0.13889610398938807556E+01
    0.14697520681015217026E+01
    0.13489303356484507734E+01
    0.14767054244816364417E+01
    0.14631240191941869977E+01
    0.14935550148202227927E+01
    0.14894123589305796607E+01
    0.14587490859005076693E+01
    0.14919172579612336449E+01
    0.13051604298023160577E+01
    0.14620271708822083490E+01
    0.14350777508945382621E+01
    0.14090075953565235345E+01
    0.13457346368355933564E+01
    0.75252432062931040591E+00
    0.87745540276714684147E+00
    0.75039553781969892121E+00
    0.86617142006259828513E+00
    0.93619062721351320455E+00
    0.14441291210580973203E+01
    0.14881990902728776671E+01
    0.14740877689908276071E+01
    0.14869077189828237007E+01
    0.14910899222509224060E+01
    0.11422604599487935495E+01
    0.12771228436839514586E+01
    0.13111015822762945859E+01
    0.11002821251307515205E+01
    0.12007613744148881718E+01
    0.14839221624983403025E+01
    0.14788783273494658932E+01
    0.14907243517259245458E+01
    0.14630531143694485152E+01
    0.14903477293756097755E+01
    0.10564755983580451648E+01
    0.12997060599916576695E+01
    0.11491584037363535842E+01
    0.11592164855688875669E+01
    0.12826773239957827144E+01
    0.14432108210892775624E+01
    0.14718511472273223539E+01
    0.14275010135193260119E+01
    0.14713055345169152588E+01
    0.13577785858978008715E+01
    0.73024698763711259897E+00
    0.99309003854527255761E+00
    0.83222253407822965876E+00
    0.79433237637813858267E+00
    0.93471536033901614360E+00
    0.71680564711469396677E+00
    0.63303435612582803493E+00
    0.73179788601645512358E+00
    0.63977132203491082763E+00
    0.81043433846807744203E+00
    0.12140834149229284833E+01
    0.14090111484239096207E+01
    0.13227649975230366675E+01
    0.14304617101034478033E+01
    0.14066714867978806769E+01
    0.13038826922130222208E+01
    0.12911528174395259239E+01
    0.14174121252115963188E+01
    0.13931894620789289085E+01
    0.14434532666117181332E+01
    0.14920149037653520629E+01
    0.14498309407889213851E+01
    0.14503960252980769852E+01
    0.14919866074208982809E+01
    0.12045878311331938981E+01
    0.11436823086522474036E+01
    0.11373325086980301535E+01
    0.13493818190626738485E+01
    0.10809545955749504387E+01
    0.12571248104358778708E+01
    0.63185794164706365894E+00
    0.68327736601626054558E+00
    0.83396575216505275385E+00
    0.81343571652875401590E+00
    0.82844057644725599410E+00
    0.95225564179529564868E+00
    0.97629828241267779809E+00
    0.10699048189441395795E+01
    0.12322543637156071483E+01
    0.13736913343362127105E+01
    0.13494762231005497100E+01
    0.14266251635169298062E+01
    0.14859811789819736827E+01
    0.14887327903178027011E+01
    0.13682480583051654932E+01
    0.14742187913103326213E+01
    0.13127185517718760188E+01
    0.10593783205451225982E+01
    0.11170952417089830000E+01
    0.14776316390458432704E+01
    0.14892162561193085235E+01
    0.79138079866510768756E+00
    0.65730860274707092472E+00
    0.60372299195448153597E+00
    0.12069626545450082844E+01
    0.10113777317021113156E+01
    0.98993601513232531985E+00
    0.14047144182680482150E+01
    0.14307077333725932711E+01
    0.12276994765416957556E+01
    0.14833096167020731748E+01
    0.14258832815973105923E+01
    0.14061240381238613306E+01
    0.98343153805440453041E+00
    0.10083031401412105854E+01
    0.74464527435707705827E+00
    0.14761290050541113761E+01
    0.14954458629201674569E+01
    0.14696789359059583280E+01
    0.69440720214261353327E+00
    0.66939860504917148010E+00
    0.54160584114371845832E+00
    0.64358971151945776334E+00
    0.56700316984514020913E+00
    0.52007303919091119049E+00
    0.14780904686074125554E+01
    0.13642324827796876718E+01
    0.14681956081818041682E+01
    0.14844906632674363944E+01
    0.12494144957916628602E+01
    0.14711394020716039854E+01
    0.14079992355677417581E+01
    0.13840593266839820163E+01
    0.97454727548821074024E+00
    0.13075197860964338226E+01
    0.12273804806223880259E+01
    0.10865505310764846936E+01
    0.14392226785205308737E+01
    0.14079535712183681717E+01
    0.12737776414511674528E+01
    0.14834233870566462254E+01
    0.14660399202269376318E+01
    0.92054466980679316990E+00
    0.10097705612582725809E+01
    0.55044411653759917069E+00
    0.58540677006937924531E+00
    0.13800250641796394380E+01
    0.13452833896368729949E+01
    0.50678002121760123977E+00
    0.50645434135182498814E+00
    0.13959306175075527623E+01
    0.10038256924906190370E+01
    0.99486431931830177078E+00
    0.14646028665304759997E+01
    0.77312132999701299596E+00
    0.13809635315750636853E+01
    0.13403076348094216108E+01
    0.85076135089492921360E+00
    0.14747404242954864628E+01
    0.13685067303569720121E+01
    0.14772500638672434459E+01
    0.12950390443123438455E+01
    0.14701454614560032219E+01
    0.77769038799901268888E+00
    0.87462573369960106007E+00
    0.12503339892710623182E+01
    0.14479039484782880720E+01
    0.14896132532413373095E+01
    0.10789349312836313821E+01
    0.14889633349932138717E+01
    0.14555167174207406244E+01
    0.12016071057404573708E+01
    0.98309222408582974673E+00
    0.72144304555240912347E+00
    0.65550501440442721091E+00
    0.11036156504832745906E+01
    0.10630995833775584991E+01
    0.51881874428235641439E+00
    0.51700427879645305396E+00
    0.63764941787620799118E+00
    0.62589068133529135451E+00
    0.97747266990094583416E+00
    0.12293071283100183155E+01
    0.13941459593287479635E+01
    0.14661849139158591449E+01
    0.14743331254010709763E+01
    0.14361325303332339587E+01
    0.13138167286967270542E+01
    0.11912980202707084132E+01
    0.12526665668471952397E+01
    0.12250903623657753982E+01
    0.11231332247716445671E+01
    0.94242543285224822380E+00
    0.73558983180963144477E+00
    0.56724834242180777188E+00
    0.50483669210087023238E+00
    0.52016471647873063766E+00
    0.53037274593841476911E+00
    0.52963014707367317424E+00
    0.51049021508767777888E+00
    0.50569789832705291932E+00
    0.53971211553663223093E+00
    0.73088757216772648473E+00
    0.77599172687442585783E+00
    0.75416526562058128214E+00
    0.69003357537766929486E+00
    0.59402751055038316430E+00
    0.52276668967376083152E+00
    0.52213250411747269553E+00
