# vtk DataFile Version 3.0
LAPLACIEN  2D
ASCII
DATASET UNSTRUCTURED_GRID
 POINTS         391  float
  0.50371505999999999       0.50367786999999997        0.0000000000000000     
  0.29013556000000001       0.29014535000000002        0.0000000000000000     
  0.70165584999999997       0.71206597999999999        0.0000000000000000     
  0.70304188999999995       0.30176619999999998        0.0000000000000000     
  0.30920671999999999       0.71149227999999998        0.0000000000000000     
  0.79044983999999996       0.49884783999999999        0.0000000000000000     
  0.49102621000000002       0.20968644000000000        0.0000000000000000     
  0.49912957000000002       0.77208717000000004        0.0000000000000000     
  0.21724072999999999       0.48989389000000000        0.0000000000000000     
  0.83255933999999998       0.83046598000000005        0.0000000000000000     
  0.16646774000000000       0.17015694000000001        0.0000000000000000     
  0.83054514999999995       0.16736480000000001        0.0000000000000000     
  0.16953130999999999       0.83265739000000005        0.0000000000000000     
  0.42166445000000002       0.36345201999999999        0.0000000000000000     
  0.64462200999999997       0.56347807999999999        0.0000000000000000     
  0.35324633999999999       0.56311191000000005        0.0000000000000000     
  0.65456411000000003       0.84856860999999995        0.0000000000000000     
  0.35141477999999998       0.15563974000000000        0.0000000000000000     
  0.15290967000000000       0.35206625000000003        0.0000000000000000     
  0.82942241000000005       0.34936866000000000        0.0000000000000000     
  0.84390527000000004       0.64441694999999999        0.0000000000000000     
  0.63699174999999997       0.14284276000000001        0.0000000000000000     
  0.15620682999999999       0.64648446999999998        0.0000000000000000     
  0.36426062999999997       0.85756310999999996        0.0000000000000000     
  0.63489340999999999       0.40519052000000000        0.0000000000000000     
  0.52518872999999999       0.65957078000000002        0.0000000000000000     
  0.32158959999999998       0.42298103999999997        0.0000000000000000     
  0.58861710000000000       0.31711036999999997        0.0000000000000000     
  0.42078418000000001       0.69497151999999995        0.0000000000000000     
  0.48608786999999998       0.89334152000000000        0.0000000000000000     
   9.7084320000000002E-002  0.50000000000000000        0.0000000000000000     
  0.90291568000000000       0.50000000000000000        0.0000000000000000     
  0.51392453000000005       0.10668648999999999        0.0000000000000000     
  0.59792566999999996       0.73122754000000001        0.0000000000000000     
  0.74510058999999995       0.41124730999999998        0.0000000000000000     
  0.73212551999999997       0.90191560000000004        0.0000000000000000     
   9.7784830000000003E-002  0.26957329000000002        0.0000000000000000     
  0.26711221000000002        9.8671499999999995E-002   0.0000000000000000     
  0.90191560000000004       0.26787448000000003        0.0000000000000000     
  0.90118569000000004       0.73039821000000005        0.0000000000000000     
  0.73122947000000005        9.8017859999999998E-002   0.0000000000000000     
   9.8084400000000002E-002  0.73212551999999997        0.0000000000000000     
  0.26957329000000002       0.90221516999999996        0.0000000000000000     
  0.39283522999999998       0.25360379000000000        0.0000000000000000     
  0.74480864000000002       0.60495284999999999        0.0000000000000000     
  0.25505132000000003       0.60593640999999998        0.0000000000000000     
  0.52159297999999998       0.40671636000000000        0.0000000000000000     
  0.40768852000000000       0.47699891000000000        0.0000000000000000     
   9.1467049999999994E-002   9.1876959999999994E-002   0.0000000000000000     
  0.90842484999999995       0.90819225000000003        0.0000000000000000     
  0.90820104999999995        9.1566729999999999E-002   0.0000000000000000     
   9.1807449999999999E-002  0.90843574000000005        0.0000000000000000     
  0.27098960000000000       0.20527094000000001        0.0000000000000000     
  0.73457293999999995       0.79835387000000002        0.0000000000000000     
  0.79817773000000003       0.25713470999999999        0.0000000000000000     
  0.20747797000000001       0.72863946000000002        0.0000000000000000     
  0.20175195000000001       0.27583914999999998        0.0000000000000000     
  0.79603889000000005       0.72159035000000005        0.0000000000000000     
  0.71761666000000002       0.19748431999999999        0.0000000000000000     
  0.28462607000000001       0.80251899999999998        0.0000000000000000     
  0.69134598999999997       0.49261972999999998        0.0000000000000000     
  0.44720578999999999       0.58582935999999997        0.0000000000000000     
  0.24242269999999999       0.37228174000000003        0.0000000000000000     
  0.38265623999999998       0.93072131999999996        0.0000000000000000     
  0.60971754000000000       0.91988369000000003        0.0000000000000000     
   7.9163609999999995E-002  0.60979116000000000        0.0000000000000000     
  0.92010649000000000       0.61081183999999999        0.0000000000000000     
  0.61954008999999999        7.1530830000000004E-002   0.0000000000000000     
  0.91882012999999996       0.38917363999999999        0.0000000000000000     
  0.39086346000000000        8.0652249999999995E-002   0.0000000000000000     
   7.9183480000000001E-002  0.38966213000000000        0.0000000000000000     
  0.59114111999999996       0.49294315000000000        0.0000000000000000     
  0.63337980999999999       0.64485914000000000        0.0000000000000000     
  0.50012352000000004       0.29676539000000002        0.0000000000000000     
  0.82552601000000003       0.92753492000000004        0.0000000000000000     
  0.92774772999999999       0.82498556999999995        0.0000000000000000     
   7.1970870000000006E-002  0.17510291000000000        0.0000000000000000     
  0.17422821999999999        7.2635640000000001E-002   0.0000000000000000     
  0.82510813000000005        7.2134840000000006E-002   0.0000000000000000     
  0.92754665000000003       0.17446275999999999        0.0000000000000000     
  0.17501022999999999       0.92789951999999998        0.0000000000000000     
   7.2464680000000004E-002  0.82554053000000005        0.0000000000000000     
  0.30731587999999999       0.50885354999999999        0.0000000000000000     
  0.59033407999999998       0.22171178999999999        0.0000000000000000     
  0.40109191999999999       0.78725542000000004        0.0000000000000000     
  0.35420917000000002       0.63754104000000000        0.0000000000000000     
  0.15983976999999999       0.56665573000000002        0.0000000000000000     
  0.84108459999999996       0.56757886999999996        0.0000000000000000     
  0.83902096000000004       0.43344338999999998        0.0000000000000000     
  0.43230028999999998       0.16004268999999999        0.0000000000000000     
  0.57536027999999995       0.83041363999999995        0.0000000000000000     
  0.15771898000000001       0.42747892999999998        0.0000000000000000     
  0.34021692999999997       0.34221559000000001        0.0000000000000000     
  0.56002271999999997       0.57501117999999996        0.0000000000000000     
  0.65344329000000001       0.78147597999999996        0.0000000000000000     
   0.0000000000000000        0.0000000000000000        0.0000000000000000     
   1.0000000000000000        0.0000000000000000        0.0000000000000000     
   1.0000000000000000        1.0000000000000000        0.0000000000000000     
   0.0000000000000000        1.0000000000000000        0.0000000000000000     
  0.11111111000000000        0.0000000000000000        0.0000000000000000     
  0.22222222000000000        0.0000000000000000        0.0000000000000000     
  0.33333332999999998        0.0000000000000000        0.0000000000000000     
  0.44444444000000000        0.0000000000000000        0.0000000000000000     
  0.55555555999999995        0.0000000000000000        0.0000000000000000     
  0.66666667000000002        0.0000000000000000        0.0000000000000000     
  0.77777777999999997        0.0000000000000000        0.0000000000000000     
  0.88888889000000004        0.0000000000000000        0.0000000000000000     
   1.0000000000000000       0.11111111000000000        0.0000000000000000     
   1.0000000000000000       0.22222222000000000        0.0000000000000000     
   1.0000000000000000       0.33333332999999998        0.0000000000000000     
   1.0000000000000000       0.44444444000000000        0.0000000000000000     
   1.0000000000000000       0.55555555999999995        0.0000000000000000     
   1.0000000000000000       0.66666667000000002        0.0000000000000000     
   1.0000000000000000       0.77777777999999997        0.0000000000000000     
   1.0000000000000000       0.88888889000000004        0.0000000000000000     
  0.88888889000000004        1.0000000000000000        0.0000000000000000     
  0.77777777999999997        1.0000000000000000        0.0000000000000000     
  0.66666667000000002        1.0000000000000000        0.0000000000000000     
  0.55555555999999995        1.0000000000000000        0.0000000000000000     
  0.44444444000000000        1.0000000000000000        0.0000000000000000     
  0.33333332999999998        1.0000000000000000        0.0000000000000000     
  0.22222222000000000        1.0000000000000000        0.0000000000000000     
  0.11111111000000000        1.0000000000000000        0.0000000000000000     
   0.0000000000000000       0.11111111000000000        0.0000000000000000     
   0.0000000000000000       0.22222222000000000        0.0000000000000000     
[...]
 CELL_DATA         354
 SCALARS C float
 LOOKUP_TABLE default
    0.79349659188115673203E+00
    0.11330407693506177047E+01
    0.58023904313643492880E+00
    0.64193616330860758801E+00
    0.90005310561148943460E+00
    0.10027574260956928498E+01
    0.11394785404082918845E+01
    0.10863113276345433000E+01
    0.11763512161305262893E+01
    0.11759762352041536193E+01
    0.11583534484629338657E+01
    0.11755836800595602654E+01
    0.11619636640277621886E+01
    0.11610743887023522447E+01
    0.11662134604139935412E+01
    0.11588067904889238768E+01
    0.11596663129335151865E+01
    0.11713629105037084432E+01
    0.11691951853597877253E+01
    0.11600822844509715015E+01
    0.11689353638359762932E+01
    0.11654880749819880315E+01
    0.11802155470404700477E+01
    0.11774140684658647160E+01
    0.11798487876651293504E+01
    0.11744999443523500560E+01
    0.11796717587680678463E+01
    0.11715047249492065440E+01
    0.11581238791797607846E+01
    0.10872042963772670099E+01
    0.89934840563355589182E+00
    0.10024073342769463935E+01
    0.79727663373775303768E+00
    0.69449948113920911830E+00
    0.58675971848557961774E+00
    0.62924604165768482922E+00
    0.57672485544366136612E+00
    0.58505598806933623024E+00
    0.62883990735698824803E+00
    0.59673513204721384540E+00
    0.64332229154308173680E+00
    0.64630162465320717402E+00
    0.66393150181311599844E+00
    0.65136797955227276891E+00
    0.65289433968514454243E+00
    0.61345029357002434089E+00
    0.58695114514681212547E+00
    0.59790302029959496721E+00
    0.58038187019441300762E+00
    0.56880692520182918326E+00
    0.59911630057631715118E+00
    0.58475486136800414183E+00
    0.83152844664261515994E+00
    0.85332046290711949244E+00
    0.92849658571476312297E+00
    0.88521674803366035000E+00
    0.93647353884506268074E+00
    0.90971129029349362405E+00
    0.86165686626661508463E+00
    0.88591654320713564275E+00
    0.81565337442744700880E+00
    0.74269860182062075182E+00
    0.63617346604153790501E+00
    0.68923403014693529478E+00
    0.60138556117761621245E+00
    0.56984225955375567008E+00
    0.59150604709229293032E+00
    0.57735982714718125930E+00
    0.11516459886896790454E+01
    0.11775953903670743905E+01
    0.11750704085335683668E+01
    0.11677991554062334689E+01
    0.11740866801210232406E+01
    0.11672320298469360811E+01
    0.11863511012739302863E+01
    0.11885366193751232267E+01
    0.11956669838288340735E+01
    0.11850552860182743675E+01
    0.11514538083251246725E+01
    0.11786063491201015374E+01
    0.10842866384157789916E+01
    0.11180028333245397576E+01
    0.11797091788015028335E+01
    0.11125006962339638594E+01
    0.11579270680974986796E+01
    0.11422216762138379664E+01
    0.10861174265361768221E+01
    0.11564351882890062662E+01
    0.11547446900416225013E+01
    0.11555646666289709490E+01
    0.11265385428503735810E+01
    0.11109872691623254859E+01
    0.10858263679596349416E+01
    0.94912692956239719244E+00
    0.92018955026340487624E+00
    0.10102423203394479412E+01
    0.11296455098600510780E+01
    0.11915453664132484857E+01
    0.11692698687906737387E+01
    0.11883794224434700570E+01
    0.11805206588788204058E+01
    0.11927462567374331748E+01
    0.11938845776546724853E+01
    0.11547462374063657276E+01
    0.11501233403466359917E+01
    0.11176501755286172290E+01
    0.11188326203626188793E+01
    0.11492142772177129650E+01
    0.11445562767825203654E+01
    0.11185619503003743080E+01
    0.92425740159596081469E+00
    0.11128188144265864779E+01
    0.10198544796604127605E+01
    0.10048946287494862073E+01
    0.11870469906733807086E+01
    0.11039219517795162417E+01
    0.11574558031820505466E+01
    0.11775492342849824823E+01
    0.11889395895146912530E+01
    0.11229812771996827703E+01
    0.11484249886282658082E+01
    0.75704155965485209201E+00
    0.86250931277755604754E+00
    0.68230221258705436860E+00
    0.88008489061449790558E+00
    0.94276566859570309909E+00
    0.69285100187730208621E+00
    0.74255700432057647475E+00
    0.11176647932543415376E+01
    0.11661890454636247849E+01
    0.10676257688858576955E+01
    0.11815205670129416138E+01
    0.11727437120176036345E+01
    0.10728306974299326448E+01
    0.11216623735078905533E+01
    0.11922295880758588815E+01
    0.11806165875415259858E+01
    0.11841674088172933210E+01
    0.11804616852155322970E+01
    0.11649574040775947381E+01
    0.11869581935692805619E+01
    0.11900376568175350389E+01
    0.64898438444105011058E+00
    0.62577773770871347736E+00
    0.58271800946876117777E+00
    0.72633108639721000177E+00
    0.70988659485075511490E+00
    0.58713316639521828666E+00
    0.59332251635354626984E+00
    0.11658313324044689008E+01
    0.11632835667292358295E+01
    0.11473451734149060499E+01
    0.11665201118909420686E+01
    0.11307186999347809131E+01
    0.11668632891873109703E+01
    0.11916261505843064317E+01
    0.11817068672496680026E+01
    0.11659663334205683238E+01
    0.11924170925655117603E+01
    0.11842465909087556142E+01
    0.11678864625876237415E+01
    0.11773989955876502655E+01
    0.11845680440089028096E+01
    0.11910049468530730099E+01
    0.11802175833734076527E+01
    0.80046905054130002011E+00
    0.91177631844572526454E+00
    0.79836619794648688853E+00
    0.90253844662845894575E+00
    0.96478701650709408622E+00
    0.11879933685477808147E+01
    0.11682432579127466354E+01
    0.11858715176572205419E+01
    0.11956193807568826770E+01
    0.11727072703834937606E+01
    0.11234774320639762113E+01
    0.11723034982874738219E+01
    0.11699965271164514125E+01
    0.11044171585110182932E+01
    0.11358811044899745912E+01
    0.11753813747391768096E+01
    0.11951270512094989140E+01
    0.11841857036166081318E+01
    0.11928268792852509961E+01
    0.11896698592229899560E+01
    0.10692692962492333919E+01
    0.11767238703115818765E+01
    0.11104832596843516868E+01
    0.11255983765181458711E+01
    0.11696843224907178538E+01
    0.11633165415267683329E+01
    0.11605818967333316749E+01
    0.11594403242461304160E+01
    0.11566858940772937192E+01
    0.11273101936007354773E+01
    0.78004033880071665941E+00
    0.10160534066508601914E+01
    0.87302518333175505028E+00
    0.83799538330603751124E+00
    0.96440853861121489388E+00
    0.76999797664843738776E+00
    0.69178928676900641737E+00
    0.78286388591025224404E+00
    0.69881217230373160465E+00
    0.85478410446825703328E+00
    0.10854852954372680163E+01
    0.11541065132804295690E+01
    0.11417093911993339006E+01
    0.11523438201818314575E+01
    0.11529055896092181843E+01
    0.11707395209988535889E+01
    0.11724916086057033393E+01
    0.11917614642086724608E+01
    0.11933043408741355051E+01
    0.11883678230612231275E+01
    0.11842702205022810347E+01
    0.11988888717405437045E+01
    0.11961326396036182640E+01
    0.11873113942943589461E+01
    0.10851679467249508715E+01
    0.10707784405673621553E+01
    0.10695328129532968298E+01
    0.11752326222920697063E+01
    0.10913845812761699960E+01
    0.11565345436920568822E+01
    0.69150812602525091322E+00
    0.73867918295553347541E+00
    0.87510350701742456447E+00
    0.85583953485050556775E+00
    0.87039173091570853913E+00
    0.98229220801422101328E+00
    0.10022341383674131521E+01
    0.10758976651790799206E+01
    0.11712793196763735537E+01
    0.12011937651350146350E+01
    0.11929348779806672187E+01
    0.11957144484138830798E+01
    0.11650980480600321432E+01
    0.11640902383995297420E+01
    0.11350589073661285777E+01
    0.11655805494198783201E+01
    0.11780307668618434924E+01
    0.10726694469195794390E+01
    0.11091234627134174406E+01
    0.11717135149088031554E+01
    0.11708513184119047068E+01
    0.83548593066970777699E+00
    0.71453041096408775879E+00
    0.66500836600699542167E+00
    0.11489334512214968154E+01
    0.10356128989095767512E+01
    0.10168730195781607861E+01
    0.11955693095726442898E+01
    0.11900886790647753344E+01
    0.11439205711164701640E+01
    0.11817779921688931211E+01
    0.12000258086594286500E+01
    0.11943341204886044338E+01
    0.10064991016954472070E+01
    0.10299462785722506286E+01
    0.79454247798028176941E+00
    0.11658623536032721724E+01
    0.11636762511047005209E+01
    0.11717931732408388701E+01
    0.74780438831266882183E+00
    0.72523401916172480774E+00
    0.60604583474710815860E+00
    0.70138889174399143833E+00
    0.63065012425079725045E+00
    0.58506432055029877759E+00
    0.11619648334133640954E+01
    0.11314270775900980848E+01
    0.11660944607517738092E+01
    0.11716652443689938856E+01
    0.11506962913520741854E+01
    0.11771873798617242812E+01
    0.12008921220783679296E+01
    0.11923515846095260606E+01
    0.99927474905523983040E+00
    0.11718904632323678960E+01
    0.11564239014054698007E+01
    0.10863535705443465584E+01
    0.11525182269777380917E+01
    0.11554472314111325915E+01
    0.11226176233119762315E+01
    0.11811456520902430256E+01
    0.11801566940753658308E+01
    0.95475487447668105911E+00
    0.10319361677801801580E+01
    0.61452258534620440855E+00
    0.64735311497617797905E+00
    0.11813759797334399959E+01
    0.11881286829544643879E+01
    0.56915229511395248885E+00
    0.56959830495552221663E+00
    0.11949228074019897505E+01
    0.10232701023740682356E+01
    0.10157997885035072727E+01
    0.11657085696285338638E+01
    0.81960195049827000435E+00
    0.11908849916852035644E+01
    0.11387170606533256745E+01
    0.89082075723167442050E+00
    0.11692557518764832292E+01
    0.11790136080580100320E+01
    0.11878843755506951485E+01
    0.11585984830305540161E+01
    0.11854464047764925461E+01
    0.82320809494549795904E+00
    0.91063332702719679279E+00
    0.11609822739827400095E+01
    0.12016896447655427416E+01
    0.11698102878209073463E+01
    0.10857315271467273821E+01
    0.11639584811525973684E+01
    0.11918973514695738736E+01
    0.11092426044368093319E+01
    0.10065809949207920049E+01
    0.77385741580408962115E+00
    0.71457294650783165224E+00
    0.11038641777567081981E+01
    0.10800179653919368405E+01
    0.57882830607860846772E+00
    0.57534244983855942213E+00
    0.67383074074603754866E+00
    0.66495032322404390435E+00
    0.10060856455568485401E+01
    0.11731438120598445263E+01
    0.12541928484100388630E+01
    0.12798540882505646810E+01
    0.12816329448088190635E+01
    0.12666331291430905637E+01
    0.12154635255014183404E+01
    0.11609834229886646373E+01
    0.11879403889203583589E+01
    0.11734647959592114930E+01
    0.11230464733173153302E+01
    0.97770850978669088249E+00
    0.78825172781938523947E+00
    0.63021410059371585355E+00
    0.56891341539965400997E+00
    0.58611679384419634875E+00
    0.59659511307174251105E+00
    0.59569697702704049735E+00
    0.57606132204406668151E+00
    0.56809278758211734228E+00
    0.59262900066452262049E+00
    0.78485782158781647322E+00
    0.82680802404649256232E+00
    0.80676825996486023485E+00
    0.74718324030431282345E+00
    0.65719982461950399166E+00
    0.58780789920884524147E+00
    0.57984835065922668562E+00
