# vtk DataFile Version 3.0
LAPLACIEN  2D
ASCII
DATASET UNSTRUCTURED_GRID
 POINTS         391  float
  0.50371505999999999       0.50367786999999997        0.0000000000000000     
  0.29013556000000001       0.29014535000000002        0.0000000000000000     
  0.70165584999999997       0.71206597999999999        0.0000000000000000     
  0.70304188999999995       0.30176619999999998        0.0000000000000000     
  0.30920671999999999       0.71149227999999998        0.0000000000000000     
  0.79044983999999996       0.49884783999999999        0.0000000000000000     
  0.49102621000000002       0.20968644000000000        0.0000000000000000     
  0.49912957000000002       0.77208717000000004        0.0000000000000000     
  0.21724072999999999       0.48989389000000000        0.0000000000000000     
  0.83255933999999998       0.83046598000000005        0.0000000000000000     
  0.16646774000000000       0.17015694000000001        0.0000000000000000     
  0.83054514999999995       0.16736480000000001        0.0000000000000000     
  0.16953130999999999       0.83265739000000005        0.0000000000000000     
  0.42166445000000002       0.36345201999999999        0.0000000000000000     
  0.64462200999999997       0.56347807999999999        0.0000000000000000     
  0.35324633999999999       0.56311191000000005        0.0000000000000000     
  0.65456411000000003       0.84856860999999995        0.0000000000000000     
  0.35141477999999998       0.15563974000000000        0.0000000000000000     
  0.15290967000000000       0.35206625000000003        0.0000000000000000     
  0.82942241000000005       0.34936866000000000        0.0000000000000000     
  0.84390527000000004       0.64441694999999999        0.0000000000000000     
  0.63699174999999997       0.14284276000000001        0.0000000000000000     
  0.15620682999999999       0.64648446999999998        0.0000000000000000     
  0.36426062999999997       0.85756310999999996        0.0000000000000000     
  0.63489340999999999       0.40519052000000000        0.0000000000000000     
  0.52518872999999999       0.65957078000000002        0.0000000000000000     
  0.32158959999999998       0.42298103999999997        0.0000000000000000     
  0.58861710000000000       0.31711036999999997        0.0000000000000000     
  0.42078418000000001       0.69497151999999995        0.0000000000000000     
  0.48608786999999998       0.89334152000000000        0.0000000000000000     
   9.7084320000000002E-002  0.50000000000000000        0.0000000000000000     
  0.90291568000000000       0.50000000000000000        0.0000000000000000     
  0.51392453000000005       0.10668648999999999        0.0000000000000000     
  0.59792566999999996       0.73122754000000001        0.0000000000000000     
  0.74510058999999995       0.41124730999999998        0.0000000000000000     
  0.73212551999999997       0.90191560000000004        0.0000000000000000     
   9.7784830000000003E-002  0.26957329000000002        0.0000000000000000     
  0.26711221000000002        9.8671499999999995E-002   0.0000000000000000     
  0.90191560000000004       0.26787448000000003        0.0000000000000000     
  0.90118569000000004       0.73039821000000005        0.0000000000000000     
  0.73122947000000005        9.8017859999999998E-002   0.0000000000000000     
   9.8084400000000002E-002  0.73212551999999997        0.0000000000000000     
  0.26957329000000002       0.90221516999999996        0.0000000000000000     
  0.39283522999999998       0.25360379000000000        0.0000000000000000     
  0.74480864000000002       0.60495284999999999        0.0000000000000000     
  0.25505132000000003       0.60593640999999998        0.0000000000000000     
  0.52159297999999998       0.40671636000000000        0.0000000000000000     
  0.40768852000000000       0.47699891000000000        0.0000000000000000     
   9.1467049999999994E-002   9.1876959999999994E-002   0.0000000000000000     
  0.90842484999999995       0.90819225000000003        0.0000000000000000     
  0.90820104999999995        9.1566729999999999E-002   0.0000000000000000     
   9.1807449999999999E-002  0.90843574000000005        0.0000000000000000     
  0.27098960000000000       0.20527094000000001        0.0000000000000000     
  0.73457293999999995       0.79835387000000002        0.0000000000000000     
  0.79817773000000003       0.25713470999999999        0.0000000000000000     
  0.20747797000000001       0.72863946000000002        0.0000000000000000     
  0.20175195000000001       0.27583914999999998        0.0000000000000000     
  0.79603889000000005       0.72159035000000005        0.0000000000000000     
  0.71761666000000002       0.19748431999999999        0.0000000000000000     
  0.28462607000000001       0.80251899999999998        0.0000000000000000     
  0.69134598999999997       0.49261972999999998        0.0000000000000000     
  0.44720578999999999       0.58582935999999997        0.0000000000000000     
  0.24242269999999999       0.37228174000000003        0.0000000000000000     
  0.38265623999999998       0.93072131999999996        0.0000000000000000     
  0.60971754000000000       0.91988369000000003        0.0000000000000000     
   7.9163609999999995E-002  0.60979116000000000        0.0000000000000000     
  0.92010649000000000       0.61081183999999999        0.0000000000000000     
  0.61954008999999999        7.1530830000000004E-002   0.0000000000000000     
  0.91882012999999996       0.38917363999999999        0.0000000000000000     
  0.39086346000000000        8.0652249999999995E-002   0.0000000000000000     
   7.9183480000000001E-002  0.38966213000000000        0.0000000000000000     
  0.59114111999999996       0.49294315000000000        0.0000000000000000     
  0.63337980999999999       0.64485914000000000        0.0000000000000000     
  0.50012352000000004       0.29676539000000002        0.0000000000000000     
  0.82552601000000003       0.92753492000000004        0.0000000000000000     
  0.92774772999999999       0.82498556999999995        0.0000000000000000     
   7.1970870000000006E-002  0.17510291000000000        0.0000000000000000     
  0.17422821999999999        7.2635640000000001E-002   0.0000000000000000     
  0.82510813000000005        7.2134840000000006E-002   0.0000000000000000     
  0.92754665000000003       0.17446275999999999        0.0000000000000000     
  0.17501022999999999       0.92789951999999998        0.0000000000000000     
   7.2464680000000004E-002  0.82554053000000005        0.0000000000000000     
  0.30731587999999999       0.50885354999999999        0.0000000000000000     
  0.59033407999999998       0.22171178999999999        0.0000000000000000     
  0.40109191999999999       0.78725542000000004        0.0000000000000000     
  0.35420917000000002       0.63754104000000000        0.0000000000000000     
  0.15983976999999999       0.56665573000000002        0.0000000000000000     
  0.84108459999999996       0.56757886999999996        0.0000000000000000     
  0.83902096000000004       0.43344338999999998        0.0000000000000000     
  0.43230028999999998       0.16004268999999999        0.0000000000000000     
  0.57536027999999995       0.83041363999999995        0.0000000000000000     
  0.15771898000000001       0.42747892999999998        0.0000000000000000     
  0.34021692999999997       0.34221559000000001        0.0000000000000000     
  0.56002271999999997       0.57501117999999996        0.0000000000000000     
  0.65344329000000001       0.78147597999999996        0.0000000000000000     
   0.0000000000000000        0.0000000000000000        0.0000000000000000     
   1.0000000000000000        0.0000000000000000        0.0000000000000000     
   1.0000000000000000        1.0000000000000000        0.0000000000000000     
   0.0000000000000000        1.0000000000000000        0.0000000000000000     
  0.11111111000000000        0.0000000000000000        0.0000000000000000     
  0.22222222000000000        0.0000000000000000        0.0000000000000000     
  0.33333332999999998        0.0000000000000000        0.0000000000000000     
  0.44444444000000000        0.0000000000000000        0.0000000000000000     
  0.55555555999999995        0.0000000000000000        0.0000000000000000     
  0.66666667000000002        0.0000000000000000        0.0000000000000000     
  0.77777777999999997        0.0000000000000000        0.0000000000000000     
  0.88888889000000004        0.0000000000000000        0.0000000000000000     
   1.0000000000000000       0.11111111000000000        0.0000000000000000     
   1.0000000000000000       0.22222222000000000        0.0000000000000000     
   1.0000000000000000       0.33333332999999998        0.0000000000000000     
   1.0000000000000000       0.44444444000000000        0.0000000000000000     
   1.0000000000000000       0.55555555999999995        0.0000000000000000     
   1.0000000000000000       0.66666667000000002        0.0000000000000000     
   1.0000000000000000       0.77777777999999997        0.0000000000000000     
   1.0000000000000000       0.88888889000000004        0.0000000000000000     
  0.88888889000000004        1.0000000000000000        0.0000000000000000     
  0.77777777999999997        1.0000000000000000        0.0000000000000000     
  0.66666667000000002        1.0000000000000000        0.0000000000000000     
  0.55555555999999995        1.0000000000000000        0.0000000000000000     
  0.44444444000000000        1.0000000000000000        0.0000000000000000     
  0.33333332999999998        1.0000000000000000        0.0000000000000000     
  0.22222222000000000        1.0000000000000000        0.0000000000000000     
  0.11111111000000000        1.0000000000000000        0.0000000000000000     
   0.0000000000000000       0.11111111000000000        0.0000000000000000     
   0.0000000000000000       0.22222222000000000        0.0000000000000000     
[...]
 CELL_DATA         354
 SCALARS C float
 LOOKUP_TABLE default
    0.74253701324904530789E+00
    0.11471693950410368767E+01
    0.51937896149065243545E+00
    0.59889158151293286902E+00
    0.85994730988504142211E+00
    0.97491472356696662338E+00
    0.12362950973183317593E+01
    0.11079415262313672130E+01
    0.13430266028503821119E+01
    0.14129549426753151842E+01
    0.14771006528089096754E+01
    0.14632995709372202953E+01
    0.14867843685907065066E+01
    0.14906646618995929021E+01
    0.14830773829073031767E+01
    0.14875010454413581940E+01
    0.14545738226794355796E+01
    0.14091291847160110073E+01
    0.12603992505894956455E+01
    0.13339696122975661652E+01
    0.12175728439787412150E+01
    0.12548906452293016045E+01
    0.13382497451628909690E+01
    0.12992864883424397604E+01
    0.13475842237915505173E+01
    0.13274734240901282512E+01
    0.12580401846991473569E+01
    0.12961782054824517729E+01
    0.11854097732888035921E+01
    0.10803398653213391878E+01
    0.85782386125969201096E+00
    0.97262617901235481899E+00
    0.74679808403652803150E+00
    0.63488077966502176608E+00
    0.52208118253254587326E+00
    0.56618323165589123924E+00
    0.51320126679501343325E+00
    0.52079424338119595372E+00
    0.56547093714659946162E+00
    0.53171970453124361988E+00
    0.58015533253275974879E+00
    0.58336241640749031401E+00
    0.60213197364950377111E+00
    0.58860780570271664658E+00
    0.59075588886991070581E+00
    0.54844564287442487682E+00
    0.52187395700689676037E+00
    0.53278085598741542483E+00
    0.51708804150367626562E+00
    0.50780801356515781197E+00
    0.54727935549693085271E+00
    0.52842412158933205202E+00
    0.78357248812491164802E+00
    0.80693601808402581899E+00
    0.88959258914562933107E+00
    0.84136618945818753001E+00
    0.89809123534752655083E+00
    0.86856118013395100519E+00
    0.81616574320950108223E+00
    0.84276604859612291865E+00
    0.76640915881285121003E+00
    0.68652615124551086279E+00
    0.57230645364805143860E+00
    0.62938254723160402815E+00
    0.53716565237684787970E+00
    0.50592470896116437107E+00
    0.53690261993756294157E+00
    0.51793488248922170403E+00
    0.14362553580764116923E+01
    0.14890620089865960196E+01
    0.14863186127404561798E+01
    0.14736320326672014414E+01
    0.14936562922628575656E+01
    0.14870757902526954286E+01
    0.14674488718801510512E+01
    0.14246592415448744440E+01
    0.14525676486989285152E+01
    0.14914791273577234776E+01
    0.12189035914584733789E+01
    0.13100792968877164046E+01
    0.10741677351698808440E+01
    0.11585678229251896720E+01
    0.13179629586244212547E+01
    0.11212413525149966809E+01
    0.14457415413255114700E+01
    0.13226715345920858624E+01
    0.11985464188018080112E+01
    0.14153659510447538228E+01
    0.14367564926113249868E+01
    0.13842829133923750806E+01
    0.12650839882738349473E+01
    0.11265652554724661094E+01
    0.10888943974060065756E+01
    0.91830406161261968201E+00
    0.88525619144260891957E+00
    0.98650142242579264007E+00
    0.11634770915016350301E+01
    0.14236002308422810447E+01
    0.14889520095697434954E+01
    0.14543436439209680433E+01
    0.14908779026638070420E+01
    0.14215263903328516637E+01
    0.14804775677213126706E+01
    0.14111862578425580228E+01
    0.14052158719236911288E+01
    0.12981105494198812433E+01
    0.12987438616334017194E+01
    0.14289520617969559968E+01
    0.12290222153411796135E+01
    0.11539236614116448187E+01
    0.89095947301193789691E+00
    0.11437204786012604707E+01
    0.99891497158898912012E+00
    0.98209714401691061703E+00
    0.13961249884707918056E+01
    0.11026189170593123645E+01
    0.12239176027895464216E+01
    0.13501811979573963285E+01
    0.13500715869944615033E+01
    0.11284082981762604270E+01
    0.12222147835722438902E+01
    0.70352293805859189568E+00
    0.81975047813425294674E+00
    0.62317447131526981785E+00
    0.84061347217150417244E+00
    0.91074202508287860347E+00
    0.63400605396994758056E+00
    0.68777855372811969037E+00
    0.11354470140331636152E+01
    0.12897914001742822876E+01
    0.10503255664358099875E+01
    0.13398525960876008778E+01
    0.12784613779005151724E+01
    0.10544441051143338406E+01
    0.11571988642874240227E+01
    0.14704463575152177945E+01
    0.14932183588192928791E+01
    0.14137919650344046296E+01
    0.14922074571139825050E+01
    0.14796323006021361302E+01
    0.14599029130948097954E+01
    0.14292435160336935951E+01
    0.58642644942126498364E+00
    0.56162860675158809975E+00
    0.51886022813994858716E+00
    0.67090230260725847167E+00
    0.65259004002507814413E+00
    0.52215990260100009213E+00
    0.52819621787712556227E+00
    0.14797813946725035805E+01
    0.14419027632256211646E+01
    0.13889605154764814721E+01
    0.14697503083684684277E+01
    0.13489307093067490761E+01
    0.14767027423874092840E+01
    0.14631201810152316689E+01
    0.14935520964564847901E+01
    0.14894099245878618110E+01
    0.14587450324878918906E+01
    0.14919147937581829222E+01
    0.13051559322397912055E+01
    0.14620258616960071230E+01
    0.14350752980261405334E+01
    0.14090045678254252692E+01
    0.13457314627024734577E+01
    0.75252216499861523946E+00
    0.87745381531361776872E+00
    0.75039274490277885210E+00
    0.86617195241316990995E+00
    0.93619023040420135118E+00
    0.14441247755820656451E+01
    0.14881966343613182158E+01
    0.14740847713092257720E+01
    0.14869039410653264177E+01
    0.14910873758688500956E+01
    0.11422558115290553094E+01
    0.12771209176364783922E+01
    0.13111010484169232093E+01
    0.11002772863144603122E+01
    0.12007601232501756705E+01
    0.14839197761105196172E+01
    0.14788744926468835317E+01
    0.14907218576676608546E+01
    0.14630493755667370870E+01
    0.14903449481297763590E+01
    0.10564709587765712673E+01
    0.12997048667059247773E+01
    0.11491569189271859663E+01
    0.11592120706127690966E+01
    0.12826755630362738358E+01
    0.14432085661170197532E+01
    0.14718493988642800119E+01
    0.14274992887581903211E+01
    0.14713016193902586082E+01
    0.13577792016457483903E+01
    0.73024494162086694971E+00
    0.99309129659701433912E+00
    0.83222361050644599878E+00
    0.79433012638186273335E+00
    0.93471549410759191545E+00
    0.71680983163358780175E+00
    0.63303446843544164402E+00
    0.73180004840959345103E+00
    0.63977450669780133730E+00
    0.81043681035261094792E+00
    0.12140908343272318604E+01
    0.14090090440660199000E+01
    0.13227666847106400727E+01
    0.14304605964336096768E+01
    0.14066701886650851971E+01
    0.13038796815502440296E+01
    0.12911508077826676644E+01
    0.14174088682158596519E+01
    0.13931866148363403202E+01
    0.14434499119393042754E+01
    0.14920119773316549150E+01
    0.14498270530009413903E+01
    0.14503932977640570101E+01
    0.14919844415882299593E+01
    0.12045964539891480527E+01
    0.11436967073318258237E+01
    0.11373498615797266176E+01
    0.13493799344698131915E+01
    0.10809532808176325336E+01
    0.12571221574499524820E+01
    0.63186243266432895460E+00
    0.68327795202588625934E+00
    0.83396393308648919529E+00
    0.81343405261359524872E+00
    0.82843991421339102654E+00
    0.95225346726960502508E+00
    0.97629746555753615933E+00
    0.10699001851212430747E+01
    0.12322518483480118245E+01
    0.13736875348862345181E+01
    0.13494732357970118386E+01
    0.14266206925008726447E+01
    0.14859767486315209606E+01
    0.14887304020380813796E+01
    0.13682505386872332309E+01
    0.14742163829682088938E+01
    0.13127158974471218045E+01
    0.10593772856289478401E+01
    0.11170956728850716111E+01
    0.14776293620459148848E+01
    0.14892138814492410503E+01
    0.79137970561275383652E+00
    0.65730810506009862415E+00
    0.60372662094840934266E+00
    0.12069595966268145126E+01
    0.10113752842340317795E+01
    0.98993727642563233982E+00
    0.14047101883869461680E+01
    0.14307035262391227803E+01
    0.12277002310588764900E+01
    0.14833061065319979033E+01
    0.14258800105711582074E+01
    0.14061221319977841304E+01
    0.98342898482862139975E+00
    0.10082995007824804290E+01
    0.74464894241423751353E+00
    0.14761270454315511547E+01
    0.14954433457146245612E+01
    0.14696767226672515783E+01
    0.69440722209542937726E+00
    0.66939806687384972861E+00
    0.54160944837183044864E+00
    0.64359070863124390183E+00
    0.56700460385249273898E+00
    0.52007646406336616174E+00
    0.14780886050356825123E+01
    0.13642347441540545461E+01
    0.14681930892516243947E+01
    0.14844875036263238677E+01
    0.12494142894609319150E+01
    0.14711365723392499927E+01
    0.14079955765917055999E+01
    0.13840572571328644269E+01
    0.97454828096184331621E+00
    0.13075142525568979046E+01
    0.12273762325458603684E+01
    0.10865514399581575056E+01
    0.14392216607558641073E+01
    0.14079516306778878665E+01
    0.12737820742145808950E+01
    0.14834206877354187970E+01
    0.14660382247832752789E+01
    0.92054471327355180676E+00
    0.10097696967642950661E+01
    0.55044626798729745509E+00
    0.58540842211179655585E+00
    0.13800225072102310087E+01
    0.13452812226350912006E+01
    0.50678235850361985637E+00
    0.50645672148113385358E+00
    0.13959268042381385300E+01
    0.10038241047098472869E+01
    0.99486256605148182253E+00
    0.14646010554932316072E+01
    0.77312097515497968381E+00
    0.13809612402526378894E+01
    0.13403053124552286590E+01
    0.85076364978439689146E+00
    0.14747385721947547932E+01
    0.13685053378856812945E+01
    0.14772470597856117713E+01
    0.12950400888937014798E+01
    0.14701427403961753182E+01
    0.77768878963495891021E+00
    0.87462397199629582367E+00
    0.12503306992990173008E+01
    0.14479001052497593172E+01
    0.14896107950111314722E+01
    0.10789312942894475622E+01
    0.14889613570827928690E+01
    0.14555131879588949495E+01
    0.12016140903115748451E+01
    0.98309189405655650340E+00
    0.72144517399067065178E+00
    0.65551083504308027550E+00
    0.11036183860123391920E+01
    0.10631049105823799916E+01
    0.51881965195723511730E+00
    0.51700468538754773551E+00
    0.63764711570431842347E+00
    0.62588935088178754285E+00
    0.97747552965495954069E+00
    0.12293108354506787627E+01
    0.13941479704528261241E+01
    0.14661855391217391009E+01
    0.14743337671729201954E+01
    0.14361339622919087056E+01
    0.13138190072774280637E+01
    0.11913030295925974844E+01
    0.12526718716741851445E+01
    0.12250957963234661019E+01
    0.11231388739882346428E+01
    0.94243117054654002018E+00
    0.73559540771408771231E+00
    0.56725088071474649709E+00
    0.50483854351087087409E+00
    0.52016843380566923916E+00
    0.53037694260480749975E+00
    0.52963450370040243698E+00
    0.51049310281946436163E+00
    0.50569943378108950238E+00
    0.53971150914618526429E+00
    0.73089381873992131933E+00
    0.77599908461290079131E+00
    0.75417239628560384102E+00
    0.69004002166559574860E+00
    0.59403242876842998754E+00
    0.52277013031735553028E+00
    0.52213292306002023757E+00
