# vtk DataFile Version 3.0
LAPLACIEN  2D
ASCII
DATASET UNSTRUCTURED_GRID
 POINTS         391  float
  0.50371505999999999       0.50367786999999997        0.0000000000000000     
  0.29013556000000001       0.29014535000000002        0.0000000000000000     
  0.70165584999999997       0.71206597999999999        0.0000000000000000     
  0.70304188999999995       0.30176619999999998        0.0000000000000000     
  0.30920671999999999       0.71149227999999998        0.0000000000000000     
  0.79044983999999996       0.49884783999999999        0.0000000000000000     
  0.49102621000000002       0.20968644000000000        0.0000000000000000     
  0.49912957000000002       0.77208717000000004        0.0000000000000000     
  0.21724072999999999       0.48989389000000000        0.0000000000000000     
  0.83255933999999998       0.83046598000000005        0.0000000000000000     
  0.16646774000000000       0.17015694000000001        0.0000000000000000     
  0.83054514999999995       0.16736480000000001        0.0000000000000000     
  0.16953130999999999       0.83265739000000005        0.0000000000000000     
  0.42166445000000002       0.36345201999999999        0.0000000000000000     
  0.64462200999999997       0.56347807999999999        0.0000000000000000     
  0.35324633999999999       0.56311191000000005        0.0000000000000000     
  0.65456411000000003       0.84856860999999995        0.0000000000000000     
  0.35141477999999998       0.15563974000000000        0.0000000000000000     
  0.15290967000000000       0.35206625000000003        0.0000000000000000     
  0.82942241000000005       0.34936866000000000        0.0000000000000000     
  0.84390527000000004       0.64441694999999999        0.0000000000000000     
  0.63699174999999997       0.14284276000000001        0.0000000000000000     
  0.15620682999999999       0.64648446999999998        0.0000000000000000     
  0.36426062999999997       0.85756310999999996        0.0000000000000000     
  0.63489340999999999       0.40519052000000000        0.0000000000000000     
  0.52518872999999999       0.65957078000000002        0.0000000000000000     
  0.32158959999999998       0.42298103999999997        0.0000000000000000     
  0.58861710000000000       0.31711036999999997        0.0000000000000000     
  0.42078418000000001       0.69497151999999995        0.0000000000000000     
  0.48608786999999998       0.89334152000000000        0.0000000000000000     
   9.7084320000000002E-002  0.50000000000000000        0.0000000000000000     
  0.90291568000000000       0.50000000000000000        0.0000000000000000     
  0.51392453000000005       0.10668648999999999        0.0000000000000000     
  0.59792566999999996       0.73122754000000001        0.0000000000000000     
  0.74510058999999995       0.41124730999999998        0.0000000000000000     
  0.73212551999999997       0.90191560000000004        0.0000000000000000     
   9.7784830000000003E-002  0.26957329000000002        0.0000000000000000     
  0.26711221000000002        9.8671499999999995E-002   0.0000000000000000     
  0.90191560000000004       0.26787448000000003        0.0000000000000000     
  0.90118569000000004       0.73039821000000005        0.0000000000000000     
  0.73122947000000005        9.8017859999999998E-002   0.0000000000000000     
   9.8084400000000002E-002  0.73212551999999997        0.0000000000000000     
  0.26957329000000002       0.90221516999999996        0.0000000000000000     
  0.39283522999999998       0.25360379000000000        0.0000000000000000     
  0.74480864000000002       0.60495284999999999        0.0000000000000000     
  0.25505132000000003       0.60593640999999998        0.0000000000000000     
  0.52159297999999998       0.40671636000000000        0.0000000000000000     
  0.40768852000000000       0.47699891000000000        0.0000000000000000     
   9.1467049999999994E-002   9.1876959999999994E-002   0.0000000000000000     
  0.90842484999999995       0.90819225000000003        0.0000000000000000     
  0.90820104999999995        9.1566729999999999E-002   0.0000000000000000     
   9.1807449999999999E-002  0.90843574000000005        0.0000000000000000     
  0.27098960000000000       0.20527094000000001        0.0000000000000000     
  0.73457293999999995       0.79835387000000002        0.0000000000000000     
  0.79817773000000003       0.25713470999999999        0.0000000000000000     
  0.20747797000000001       0.72863946000000002        0.0000000000000000     
  0.20175195000000001       0.27583914999999998        0.0000000000000000     
  0.79603889000000005       0.72159035000000005        0.0000000000000000     
  0.71761666000000002       0.19748431999999999        0.0000000000000000     
  0.28462607000000001       0.80251899999999998        0.0000000000000000     
  0.69134598999999997       0.49261972999999998        0.0000000000000000     
  0.44720578999999999       0.58582935999999997        0.0000000000000000     
  0.24242269999999999       0.37228174000000003        0.0000000000000000     
  0.38265623999999998       0.93072131999999996        0.0000000000000000     
  0.60971754000000000       0.91988369000000003        0.0000000000000000     
   7.9163609999999995E-002  0.60979116000000000        0.0000000000000000     
  0.92010649000000000       0.61081183999999999        0.0000000000000000     
  0.61954008999999999        7.1530830000000004E-002   0.0000000000000000     
  0.91882012999999996       0.38917363999999999        0.0000000000000000     
  0.39086346000000000        8.0652249999999995E-002   0.0000000000000000     
   7.9183480000000001E-002  0.38966213000000000        0.0000000000000000     
  0.59114111999999996       0.49294315000000000        0.0000000000000000     
  0.63337980999999999       0.64485914000000000        0.0000000000000000     
  0.50012352000000004       0.29676539000000002        0.0000000000000000     
  0.82552601000000003       0.92753492000000004        0.0000000000000000     
  0.92774772999999999       0.82498556999999995        0.0000000000000000     
   7.1970870000000006E-002  0.17510291000000000        0.0000000000000000     
  0.17422821999999999        7.2635640000000001E-002   0.0000000000000000     
  0.82510813000000005        7.2134840000000006E-002   0.0000000000000000     
  0.92754665000000003       0.17446275999999999        0.0000000000000000     
  0.17501022999999999       0.92789951999999998        0.0000000000000000     
   7.2464680000000004E-002  0.82554053000000005        0.0000000000000000     
  0.30731587999999999       0.50885354999999999        0.0000000000000000     
  0.59033407999999998       0.22171178999999999        0.0000000000000000     
  0.40109191999999999       0.78725542000000004        0.0000000000000000     
  0.35420917000000002       0.63754104000000000        0.0000000000000000     
  0.15983976999999999       0.56665573000000002        0.0000000000000000     
  0.84108459999999996       0.56757886999999996        0.0000000000000000     
  0.83902096000000004       0.43344338999999998        0.0000000000000000     
  0.43230028999999998       0.16004268999999999        0.0000000000000000     
  0.57536027999999995       0.83041363999999995        0.0000000000000000     
  0.15771898000000001       0.42747892999999998        0.0000000000000000     
  0.34021692999999997       0.34221559000000001        0.0000000000000000     
  0.56002271999999997       0.57501117999999996        0.0000000000000000     
  0.65344329000000001       0.78147597999999996        0.0000000000000000     
   0.0000000000000000        0.0000000000000000        0.0000000000000000     
   1.0000000000000000        0.0000000000000000        0.0000000000000000     
   1.0000000000000000        1.0000000000000000        0.0000000000000000     
   0.0000000000000000        1.0000000000000000        0.0000000000000000     
  0.11111111000000000        0.0000000000000000        0.0000000000000000     
  0.22222222000000000        0.0000000000000000        0.0000000000000000     
  0.33333332999999998        0.0000000000000000        0.0000000000000000     
  0.44444444000000000        0.0000000000000000        0.0000000000000000     
  0.55555555999999995        0.0000000000000000        0.0000000000000000     
  0.66666667000000002        0.0000000000000000        0.0000000000000000     
  0.77777777999999997        0.0000000000000000        0.0000000000000000     
  0.88888889000000004        0.0000000000000000        0.0000000000000000     
   1.0000000000000000       0.11111111000000000        0.0000000000000000     
   1.0000000000000000       0.22222222000000000        0.0000000000000000     
   1.0000000000000000       0.33333332999999998        0.0000000000000000     
   1.0000000000000000       0.44444444000000000        0.0000000000000000     
   1.0000000000000000       0.55555555999999995        0.0000000000000000     
   1.0000000000000000       0.66666667000000002        0.0000000000000000     
   1.0000000000000000       0.77777777999999997        0.0000000000000000     
   1.0000000000000000       0.88888889000000004        0.0000000000000000     
  0.88888889000000004        1.0000000000000000        0.0000000000000000     
  0.77777777999999997        1.0000000000000000        0.0000000000000000     
  0.66666667000000002        1.0000000000000000        0.0000000000000000     
  0.55555555999999995        1.0000000000000000        0.0000000000000000     
  0.44444444000000000        1.0000000000000000        0.0000000000000000     
  0.33333332999999998        1.0000000000000000        0.0000000000000000     
  0.22222222000000000        1.0000000000000000        0.0000000000000000     
  0.11111111000000000        1.0000000000000000        0.0000000000000000     
   0.0000000000000000       0.11111111000000000        0.0000000000000000     
   0.0000000000000000       0.22222222000000000        0.0000000000000000     
[...]
 CELL_DATA         354
 SCALARS C float
 LOOKUP_TABLE default
    0.79506372371693412315E+00
    0.11320282559531715805E+01
    0.58204771464788018775E+00
    0.64330191827797111870E+00
    0.90140787809760114513E+00
    0.10038046369662096957E+01
    0.11374543958553520184E+01
    0.10854079797949949260E+01
    0.11753407444247188085E+01
    0.11752073016945534523E+01
    0.11578293085471460522E+01
    0.11749685067753685708E+01
    0.11611435996522594394E+01
    0.11602078994965132619E+01
    0.11654300976689959679E+01
    0.11580970557258534193E+01
    0.11589594353774674840E+01
    0.11705461348095214102E+01
    0.11684390359686696037E+01
    0.11592477993536289826E+01
    0.11680329957806976360E+01
    0.11639646334133797456E+01
    0.11792606222842560992E+01
    0.11757145647155633483E+01
    0.11789620786954349008E+01
    0.11735136373816688060E+01
    0.11786207905289474152E+01
    0.11706539502039283729E+01
    0.11567583267767749255E+01
    0.10871629881853932531E+01
    0.90066633321187583583E+00
    0.10034596042225814028E+01
    0.79883880164248943778E+00
    0.69628191132258310247E+00
    0.58866569908122823307E+00
    0.63111576569326377495E+00
    0.57860612022803781240E+00
    0.58694677922669791226E+00
    0.63070742407444013722E+00
    0.59864485226963992659E+00
    0.64516471935402341931E+00
    0.64814394672515396323E+00
    0.66574254942579336181E+00
    0.65320680471839687176E+00
    0.65472856873354845497E+00
    0.61535093870403212435E+00
    0.58884858745481172271E+00
    0.59979826971526772894E+00
    0.58224329782277195466E+00
    0.57061920253151898752E+00
    0.60069207284845849149E+00
    0.58643299493406775280E+00
    0.83302491157271507660E+00
    0.85477579000098558026E+00
    0.92976693621822903424E+00
    0.88659781667766690560E+00
    0.93770277714522931589E+00
    0.91101212086135208157E+00
    0.86307381225365387145E+00
    0.88728042098012815941E+00
    0.81716860357194587294E+00
    0.74437859247820115094E+00
    0.63803299139367652959E+00
    0.69100581085492196465E+00
    0.60327074168050143221E+00
    0.57172565218587378943E+00
    0.59313068021234927052E+00
    0.57911516625575898409E+00
    0.11507490449300739055E+01
    0.11766231250307035427E+01
    0.11746315525022186232E+01
    0.11669157224607247247E+01
    0.11735348307468507212E+01
    0.11667201512503486693E+01
    0.11860108050335089747E+01
    0.11882001740617313956E+01
    0.11952621330419932466E+01
    0.11843927461842640447E+01
    0.11505892293616986066E+01
    0.11773930424653569204E+01
    0.10849911525768589637E+01
    0.11175057480395309550E+01
    0.11793097130355019164E+01
    0.11120429013380219718E+01
    0.11572123919625711963E+01
    0.11404116071594767590E+01
    0.10832888125589912320E+01
    0.11553921341188795324E+01
    0.11539018145131727522E+01
    0.11538306934228468315E+01
    0.11237310053925537723E+01
    0.11110303132833336814E+01
    0.10855932904632059621E+01
    0.95030618913393105629E+00
    0.92146102934460905054E+00
    0.10112277710499308903E+01
    0.11286586189842868766E+01
    0.11912209134064697391E+01
    0.11687519672185802122E+01
    0.11880355264142090643E+01
    0.11799420576490065038E+01
    0.11923628949553546352E+01
    0.11934238622750794612E+01
    0.11530081088120021082E+01
    0.11485149439772290858E+01
    0.11161613674448549460E+01
    0.11172513375913564193E+01
    0.11479182511919232557E+01
    0.11429567218065801448E+01
    0.11182567371796119371E+01
    0.92555129791972801101E+00
    0.11123090542013138737E+01
    0.10207623635789926375E+01
    0.10058641052478145550E+01
    0.11863065907426328938E+01
    0.11040600484039466700E+01
    0.11566447534932688956E+01
    0.11769595888171009435E+01
    0.11884452913762060255E+01
    0.11226393675774672953E+01
    0.11479864191372046722E+01
    0.75869292478150685000E+00
    0.86392081368143891495E+00
    0.68409535386890651942E+00
    0.88146986873318444733E+00
    0.94398993315002566185E+00
    0.69461358946921725188E+00
    0.74423413543274508086E+00
    0.11176001058487650131E+01
    0.11654314511312455771E+01
    0.10683927916624662569E+01
    0.11811919806421951051E+01
    0.11722508292541697905E+01
    0.10736074995143982669E+01
    0.11214394804678069484E+01
    0.11918791832913835371E+01
    0.11798587797405637456E+01
    0.11836518625270882055E+01
    0.11798605145640757019E+01
    0.11643554552428607707E+01
    0.11862983605115329233E+01
    0.11895858378359203122E+01
    0.65083308753071000829E+00
    0.62765869239112526135E+00
    0.58459732881398096538E+00
    0.72804496014844888307E+00
    0.71163491818644319942E+00
    0.58903045211639704082E+00
    0.59522427520701215453E+00
    0.11652647921163936662E+01
    0.11618555394008394099E+01
    0.11461633677424309941E+01
    0.11656441246700384173E+01
    0.11292804473871469462E+01
    0.11658805879029650043E+01
    0.11912483812401746253E+01
    0.11810895588640097920E+01
    0.11654200242043242230E+01
    0.11920555423656185035E+01
    0.11837366018647286214E+01
    0.11674511164266838659E+01
    0.11769002410137860970E+01
    0.11841366197662557269E+01
    0.11905806446112077168E+01
    0.11798198740467036316E+01
    0.80204706095189259862E+00
    0.91309348341658314041E+00
    0.79996081541433550210E+00
    0.90385690835057974635E+00
    0.96595206022504065402E+00
    0.11874561258861167090E+01
    0.11675780487629874305E+01
    0.11854688134699182811E+01
    0.11947459409287648491E+01
    0.11718785247893048762E+01
    0.11230165800114759733E+01
    0.11710566542575278071E+01
    0.11695654155121453233E+01
    0.11045640752009369123E+01
    0.11356547674175168083E+01
    0.11746286765860725065E+01
    0.11947380970585819160E+01
    0.11833622834508148447E+01
    0.11925310236620307869E+01
    0.11892090111461317559E+01
    0.10700975775733732043E+01
    0.11755814783840201621E+01
    0.11101889241628795091E+01
    0.11253410861640782414E+01
    0.11686230343762105122E+01
    0.11614966756950029225E+01
    0.11593960996348910975E+01
    0.11579606726685995888E+01
    0.11553483846923755518E+01
    0.11257787637393481539E+01
    0.78166411724253892501E+00
    0.10170441038719084670E+01
    0.87441352132617455872E+00
    0.83949999900322058721E+00
    0.96556785875080364256E+00
    0.77160631703777649015E+00
    0.69358732294987190947E+00
    0.78447080369399502242E+00
    0.70058653935315784445E+00
    0.85620607010862648245E+00
    0.10828800782329244257E+01
    0.11529860976497237068E+01
    0.11395545310257564342E+01
    0.11515348613023277391E+01
    0.11517008851381693724E+01
    0.11698514849107142233E+01
    0.11712574515890743498E+01
    0.11912739592684742362E+01
    0.11927824431669105110E+01
    0.11879391172902860063E+01
    0.11835581010096865029E+01
    0.11982296102955838357E+01
    0.11954607120846703072E+01
    0.11866301471942091172E+01
    0.10822221948262751301E+01
    0.10672123665001631565E+01
    0.10658604936171567346E+01
    0.11748091173319945568E+01
    0.10920073930789504502E+01
    0.11561708898480744789E+01
    0.69328853077273477901E+00
    0.74037564766535068905E+00
    0.87650645807376736940E+00
    0.85728272480794087684E+00
    0.87181136274760406835E+00
    0.98342091367159101267E+00
    0.10032635061175212421E+01
    0.10761813561705091402E+01
    0.11706302054034156690E+01
    0.12007341647878941870E+01
    0.11927431485966444313E+01
    0.11954539685349097056E+01
    0.11636538173079926661E+01
    0.11632455346945911323E+01
    0.11331102790732987540E+01
    0.11642788399188270798E+01
    0.11776476923831735721E+01
    0.10734616817699547120E+01
    0.11087019952330838812E+01
    0.11708259694956668628E+01
    0.11704432996150835322E+01
    0.83696884969970797297E+00
    0.71628425803288031659E+00
    0.66683005158093811016E+00
    0.11475914406371254817E+01
    0.10365734460069837564E+01
    0.10178188344281449140E+01
    0.11951742218239154170E+01
    0.11892185262191137252E+01
    0.11419036387158119084E+01
    0.11814344354801631365E+01
    0.11993756131575765700E+01
    0.11936398011356725846E+01
    0.10075010513040416615E+01
    0.10309438074078463021E+01
    0.79610567011539412619E+00
    0.11648427830713554698E+01
    0.11625872024272663197E+01
    0.11710190323367053455E+01
    0.74948152605163365081E+00
    0.72696527727614157488E+00
    0.60793616561039953705E+00
    0.70315439140777635796E+00
    0.63253997804677086769E+00
    0.58695980201471542603E+00
    0.11616939357682805056E+01
    0.11297981070797309400E+01
    0.11648984749521817950E+01
    0.11706317190398589645E+01
    0.11490244108429374936E+01
    0.11768627922887782145E+01
    0.12003695703370120818E+01
    0.11918625611017925614E+01
    0.10002965925953675175E+01
    0.11715049729676143553E+01
    0.11555546492784545265E+01
    0.10861594796357545434E+01
    0.11515995045487208426E+01
    0.11541597834900239050E+01
    0.11204140117715573055E+01
    0.11805709125421062211E+01
    0.11796754117944776574E+01
    0.95597522684999303166E+00
    0.10328118299336395136E+01
    0.61642056921114074530E+00
    0.64921171037194003173E+00
    0.11807776387133204210E+01
    0.11876184659778017405E+01
    0.57097070183739939697E+00
    0.57144263103640735579E+00
    0.11947009750703476705E+01
    0.10241625961897440344E+01
    0.10168348507219333587E+01
    0.11647977437753018748E+01
    0.82113350218947211978E+00
    0.11903503732312661345E+01
    0.11367041468428977780E+01
    0.89216480996643543477E+00
    0.11683839751008993080E+01
    0.11786716246069801617E+01
    0.11874360364645084598E+01
    0.11582363861901971980E+01
    0.11850641808624571283E+01
    0.82473077432701680234E+00
    0.91196169327097253987E+00
    0.11602081428518151718E+01
    0.12014270664730006821E+01
    0.11689840544125347233E+01
    0.10859523634843757378E+01
    0.11634294756301430951E+01
    0.11914936609453639083E+01
    0.11065080919423642136E+01
    0.10076364180850609920E+01
    0.77547830070224155197E+00
    0.71630414657973395798E+00
    0.11039453813464001897E+01
    0.10799890289286473433E+01
    0.58060956139043651270E+00
    0.57708353336177897752E+00
    0.67502645103123004588E+00
    0.66619215465314340907E+00
    0.10071265595253651171E+01
    0.11728339001231391503E+01
    0.12538856330639303049E+01
    0.12792511884960879875E+01
    0.12808940947843043823E+01
    0.12661505661703258419E+01
    0.12151863927419275235E+01
    0.11602159325575418514E+01
    0.11879507549908754349E+01
    0.11733116829850869234E+01
    0.11228091879772750250E+01
    0.97884478760117987761E+00
    0.78983216265827482783E+00
    0.63207645532615175377E+00
    0.57079076227396519094E+00
    0.58802678600869218162E+00
    0.59850861310661440662E+00
    0.59760553829652929281E+00
    0.57796814891946701742E+00
    0.56992734024934499359E+00
    0.59424146497968988179E+00
    0.78645383853373096450E+00
    0.82831123776825432703E+00
    0.80831814418804970312E+00
    0.74885509654148330050E+00
    0.65903614380200115086E+00
    0.58969957229000180554E+00
    0.58157428025778834524E+00
