# vtk DataFile Version 3.0
LAPLACIEN  2D
ASCII
DATASET UNSTRUCTURED_GRID
 POINTS         391  float
  0.50371505999999999       0.50367786999999997        0.0000000000000000     
  0.29013556000000001       0.29014535000000002        0.0000000000000000     
  0.70165584999999997       0.71206597999999999        0.0000000000000000     
  0.70304188999999995       0.30176619999999998        0.0000000000000000     
  0.30920671999999999       0.71149227999999998        0.0000000000000000     
  0.79044983999999996       0.49884783999999999        0.0000000000000000     
  0.49102621000000002       0.20968644000000000        0.0000000000000000     
  0.49912957000000002       0.77208717000000004        0.0000000000000000     
  0.21724072999999999       0.48989389000000000        0.0000000000000000     
  0.83255933999999998       0.83046598000000005        0.0000000000000000     
  0.16646774000000000       0.17015694000000001        0.0000000000000000     
  0.83054514999999995       0.16736480000000001        0.0000000000000000     
  0.16953130999999999       0.83265739000000005        0.0000000000000000     
  0.42166445000000002       0.36345201999999999        0.0000000000000000     
  0.64462200999999997       0.56347807999999999        0.0000000000000000     
  0.35324633999999999       0.56311191000000005        0.0000000000000000     
  0.65456411000000003       0.84856860999999995        0.0000000000000000     
  0.35141477999999998       0.15563974000000000        0.0000000000000000     
  0.15290967000000000       0.35206625000000003        0.0000000000000000     
  0.82942241000000005       0.34936866000000000        0.0000000000000000     
  0.84390527000000004       0.64441694999999999        0.0000000000000000     
  0.63699174999999997       0.14284276000000001        0.0000000000000000     
  0.15620682999999999       0.64648446999999998        0.0000000000000000     
  0.36426062999999997       0.85756310999999996        0.0000000000000000     
  0.63489340999999999       0.40519052000000000        0.0000000000000000     
  0.52518872999999999       0.65957078000000002        0.0000000000000000     
  0.32158959999999998       0.42298103999999997        0.0000000000000000     
  0.58861710000000000       0.31711036999999997        0.0000000000000000     
  0.42078418000000001       0.69497151999999995        0.0000000000000000     
  0.48608786999999998       0.89334152000000000        0.0000000000000000     
   9.7084320000000002E-002  0.50000000000000000        0.0000000000000000     
  0.90291568000000000       0.50000000000000000        0.0000000000000000     
  0.51392453000000005       0.10668648999999999        0.0000000000000000     
  0.59792566999999996       0.73122754000000001        0.0000000000000000     
  0.74510058999999995       0.41124730999999998        0.0000000000000000     
  0.73212551999999997       0.90191560000000004        0.0000000000000000     
   9.7784830000000003E-002  0.26957329000000002        0.0000000000000000     
  0.26711221000000002        9.8671499999999995E-002   0.0000000000000000     
  0.90191560000000004       0.26787448000000003        0.0000000000000000     
  0.90118569000000004       0.73039821000000005        0.0000000000000000     
  0.73122947000000005        9.8017859999999998E-002   0.0000000000000000     
   9.8084400000000002E-002  0.73212551999999997        0.0000000000000000     
  0.26957329000000002       0.90221516999999996        0.0000000000000000     
  0.39283522999999998       0.25360379000000000        0.0000000000000000     
  0.74480864000000002       0.60495284999999999        0.0000000000000000     
  0.25505132000000003       0.60593640999999998        0.0000000000000000     
  0.52159297999999998       0.40671636000000000        0.0000000000000000     
  0.40768852000000000       0.47699891000000000        0.0000000000000000     
   9.1467049999999994E-002   9.1876959999999994E-002   0.0000000000000000     
  0.90842484999999995       0.90819225000000003        0.0000000000000000     
  0.90820104999999995        9.1566729999999999E-002   0.0000000000000000     
   9.1807449999999999E-002  0.90843574000000005        0.0000000000000000     
  0.27098960000000000       0.20527094000000001        0.0000000000000000     
  0.73457293999999995       0.79835387000000002        0.0000000000000000     
  0.79817773000000003       0.25713470999999999        0.0000000000000000     
  0.20747797000000001       0.72863946000000002        0.0000000000000000     
  0.20175195000000001       0.27583914999999998        0.0000000000000000     
  0.79603889000000005       0.72159035000000005        0.0000000000000000     
  0.71761666000000002       0.19748431999999999        0.0000000000000000     
  0.28462607000000001       0.80251899999999998        0.0000000000000000     
  0.69134598999999997       0.49261972999999998        0.0000000000000000     
  0.44720578999999999       0.58582935999999997        0.0000000000000000     
  0.24242269999999999       0.37228174000000003        0.0000000000000000     
  0.38265623999999998       0.93072131999999996        0.0000000000000000     
  0.60971754000000000       0.91988369000000003        0.0000000000000000     
   7.9163609999999995E-002  0.60979116000000000        0.0000000000000000     
  0.92010649000000000       0.61081183999999999        0.0000000000000000     
  0.61954008999999999        7.1530830000000004E-002   0.0000000000000000     
  0.91882012999999996       0.38917363999999999        0.0000000000000000     
  0.39086346000000000        8.0652249999999995E-002   0.0000000000000000     
   7.9183480000000001E-002  0.38966213000000000        0.0000000000000000     
  0.59114111999999996       0.49294315000000000        0.0000000000000000     
  0.63337980999999999       0.64485914000000000        0.0000000000000000     
  0.50012352000000004       0.29676539000000002        0.0000000000000000     
  0.82552601000000003       0.92753492000000004        0.0000000000000000     
  0.92774772999999999       0.82498556999999995        0.0000000000000000     
   7.1970870000000006E-002  0.17510291000000000        0.0000000000000000     
  0.17422821999999999        7.2635640000000001E-002   0.0000000000000000     
  0.82510813000000005        7.2134840000000006E-002   0.0000000000000000     
  0.92754665000000003       0.17446275999999999        0.0000000000000000     
  0.17501022999999999       0.92789951999999998        0.0000000000000000     
   7.2464680000000004E-002  0.82554053000000005        0.0000000000000000     
  0.30731587999999999       0.50885354999999999        0.0000000000000000     
  0.59033407999999998       0.22171178999999999        0.0000000000000000     
  0.40109191999999999       0.78725542000000004        0.0000000000000000     
  0.35420917000000002       0.63754104000000000        0.0000000000000000     
  0.15983976999999999       0.56665573000000002        0.0000000000000000     
  0.84108459999999996       0.56757886999999996        0.0000000000000000     
  0.83902096000000004       0.43344338999999998        0.0000000000000000     
  0.43230028999999998       0.16004268999999999        0.0000000000000000     
  0.57536027999999995       0.83041363999999995        0.0000000000000000     
  0.15771898000000001       0.42747892999999998        0.0000000000000000     
  0.34021692999999997       0.34221559000000001        0.0000000000000000     
  0.56002271999999997       0.57501117999999996        0.0000000000000000     
  0.65344329000000001       0.78147597999999996        0.0000000000000000     
   0.0000000000000000        0.0000000000000000        0.0000000000000000     
   1.0000000000000000        0.0000000000000000        0.0000000000000000     
   1.0000000000000000        1.0000000000000000        0.0000000000000000     
   0.0000000000000000        1.0000000000000000        0.0000000000000000     
  0.11111111000000000        0.0000000000000000        0.0000000000000000     
  0.22222222000000000        0.0000000000000000        0.0000000000000000     
  0.33333332999999998        0.0000000000000000        0.0000000000000000     
  0.44444444000000000        0.0000000000000000        0.0000000000000000     
  0.55555555999999995        0.0000000000000000        0.0000000000000000     
  0.66666667000000002        0.0000000000000000        0.0000000000000000     
  0.77777777999999997        0.0000000000000000        0.0000000000000000     
  0.88888889000000004        0.0000000000000000        0.0000000000000000     
   1.0000000000000000       0.11111111000000000        0.0000000000000000     
   1.0000000000000000       0.22222222000000000        0.0000000000000000     
   1.0000000000000000       0.33333332999999998        0.0000000000000000     
   1.0000000000000000       0.44444444000000000        0.0000000000000000     
   1.0000000000000000       0.55555555999999995        0.0000000000000000     
   1.0000000000000000       0.66666667000000002        0.0000000000000000     
   1.0000000000000000       0.77777777999999997        0.0000000000000000     
   1.0000000000000000       0.88888889000000004        0.0000000000000000     
  0.88888889000000004        1.0000000000000000        0.0000000000000000     
  0.77777777999999997        1.0000000000000000        0.0000000000000000     
  0.66666667000000002        1.0000000000000000        0.0000000000000000     
  0.55555555999999995        1.0000000000000000        0.0000000000000000     
  0.44444444000000000        1.0000000000000000        0.0000000000000000     
  0.33333332999999998        1.0000000000000000        0.0000000000000000     
  0.22222222000000000        1.0000000000000000        0.0000000000000000     
  0.11111111000000000        1.0000000000000000        0.0000000000000000     
   0.0000000000000000       0.11111111000000000        0.0000000000000000     
   0.0000000000000000       0.22222222000000000        0.0000000000000000     
[...]
 CELL_DATA         354
 SCALARS C float
 LOOKUP_TABLE default
    0.74253592481844121753E+00
    0.11471683668239243126E+01
    0.51937873310992732634E+00
    0.59889204023720199466E+00
    0.85994717278591881193E+00
    0.97491439083820741196E+00
    0.12362945109917558018E+01
    0.11079410086451930706E+01
    0.13430263763710190705E+01
    0.14129550185588444222E+01
    0.14771007989241178304E+01
    0.14632996546158620887E+01
    0.14867846215599851423E+01
    0.14906649607146293945E+01
    0.14830776303012576101E+01
    0.14875013872512714563E+01
    0.14545738027053247698E+01
    0.14091290405588574597E+01
    0.12603992806590886833E+01
    0.13339695970461220575E+01
    0.12175723342352786638E+01
    0.12548902502989367491E+01
    0.13382492174996813983E+01
    0.12992859539263501567E+01
    0.13475835666446678296E+01
    0.13274728173887246907E+01
    0.12580396077873143845E+01
    0.12961777108985002016E+01
    0.11854088752512939031E+01
    0.10803389888279890663E+01
    0.85782285720304818355E+00
    0.97262537882074207030E+00
    0.74679691730965802599E+00
    0.63487997492745673611E+00
    0.52208071766702068839E+00
    0.56618260778244033915E+00
    0.51320096048019492319E+00
    0.52079375194736188259E+00
    0.56547014240280546460E+00
    0.53171913194262609981E+00
    0.58015421234534758632E+00
    0.58336135256782761793E+00
    0.60213077698907235824E+00
    0.58860674246416222477E+00
    0.59075494109390846997E+00
    0.54844486056808428032E+00
    0.52187320160659067536E+00
    0.53277996924627524233E+00
    0.51708756373574393805E+00
    0.50780781278954567615E+00
    0.54727938599598957570E+00
    0.52842391439775493467E+00
    0.78357157574645852627E+00
    0.80693519445133743417E+00
    0.88959146141564993115E+00
    0.84136516278540574021E+00
    0.89808974003710273504E+00
    0.86855982450193591760E+00
    0.81616459928472906427E+00
    0.84276493593012136163E+00
    0.76640788880342625156E+00
    0.68652507565381726273E+00
    0.57230538460114543931E+00
    0.62938148007968774955E+00
    0.53716486560657061844E+00
    0.50592430594331327942E+00
    0.53690242927814302298E+00
    0.51793451492588238327E+00
    0.14362558401343372694E+01
    0.14890626808759854782E+01
    0.14863194072943659574E+01
    0.14736325893883512883E+01
    0.14936569642118040502E+01
    0.14870762848460268302E+01
    0.14674495403291603068E+01
    0.14246601511297394271E+01
    0.14525684198606412245E+01
    0.14914798064222651863E+01
    0.12189035880985699123E+01
    0.13100795473982329575E+01
    0.10741680559676283213E+01
    0.11585680500986259567E+01
    0.13179636986928029430E+01
    0.11212409593646452954E+01
    0.14457418914453392667E+01
    0.13226709927996140870E+01
    0.11985433444101953881E+01
    0.14153663966192409074E+01
    0.14367568232545495643E+01
    0.13842835566782745182E+01
    0.12650825608657443322E+01
    0.11265663278782080958E+01
    0.10888950899594014299E+01
    0.91830426350472138530E+00
    0.88525619444016079296E+00
    0.98650170161044337114E+00
    0.11634783667068309132E+01
    0.14236009059909091601E+01
    0.14889525679517217061E+01
    0.14543443113119307597E+01
    0.14908786135237908077E+01
    0.14215268004518533118E+01
    0.14804783143751860663E+01
    0.14111862828248842305E+01
    0.14052157854660320968E+01
    0.12981105272845074872E+01
    0.12987439489583079144E+01
    0.14289526237669010200E+01
    0.12290228616118898941E+01
    0.11539239361600051037E+01
    0.89096026843168718568E+00
    0.11437207257300496810E+01
    0.99891558258838508699E+00
    0.98209724587862901046E+00
    0.13961259210855740953E+01
    0.11026193386259268703E+01
    0.12239181336613109696E+01
    0.13501815715333784773E+01
    0.13500725937029898205E+01
    0.11284079037577414706E+01
    0.12222151319732839081E+01
    0.70352253247097085165E+00
    0.81975016081008822422E+00
    0.62317401340746370053E+00
    0.84061388336911824215E+00
    0.91074241954892021234E+00
    0.63400505964786346702E+00
    0.68777776730043982401E+00
    0.11354471137656150237E+01
    0.12897918021687293511E+01
    0.10503255423185553497E+01
    0.13398536193548751250E+01
    0.12784622724576566455E+01
    0.10544436202604487995E+01
    0.11571987942416779305E+01
    0.14704470448258311066E+01
    0.14932189971707252596E+01
    0.14137923928345741409E+01
    0.14922082225042752057E+01
    0.14796328214492227016E+01
    0.14599035469101655504E+01
    0.14292438345366313968E+01
    0.58642574456876395139E+00
    0.56162782131672561725E+00
    0.51885970941621373242E+00
    0.67090223978903340551E+00
    0.65258983656170921339E+00
    0.52215904630234188932E+00
    0.52819530235816802843E+00
    0.14797819481875826853E+01
    0.14419031870003899964E+01
    0.13889606465515409450E+01
    0.14697507483041565290E+01
    0.13489306158574381200E+01
    0.14767034128938623105E+01
    0.14631211405405948334E+01
    0.14935528260443111659E+01
    0.14894105331659768243E+01
    0.14587460458148124864E+01
    0.14919154098250166918E+01
    0.13051570566305321641E+01
    0.14620261890263894777E+01
    0.14350759112263800077E+01
    0.14090053247229796796E+01
    0.13457322562382669773E+01
    0.75252270384855268759E+00
    0.87745421217903118993E+00
    0.75039344304310717781E+00
    0.86617181938916498751E+00
    0.93619032962075976467E+00
    0.14441258619295096466E+01
    0.14881972483328573809E+01
    0.14740855207373988467E+01
    0.14869048855264030973E+01
    0.14910880124699730231E+01
    0.11422569735502470234E+01
    0.12771213991815597577E+01
    0.13111011818950322194E+01
    0.11002784959330531578E+01
    0.12007604360572572411E+01
    0.14839203727044241177E+01
    0.14788754512986748146E+01
    0.14907224811908055262E+01
    0.14630503102515775016E+01
    0.14903456434484017024E+01
    0.10564721186076551085E+01
    0.12997051650306419290E+01
    0.11491572901545377139E+01
    0.11592131743045506198E+01
    0.12826760032994748428E+01
    0.14432091298151636938E+01
    0.14718498359756115867E+01
    0.14274997199640186984E+01
    0.14713025980960798833E+01
    0.13577790477807523128E+01
    0.73024545305222010594E+00
    0.99309098210480672986E+00
    0.83222334144220422303E+00
    0.79433068882624835449E+00
    0.93471546067367339283E+00
    0.71680878560190308679E+00
    0.63303444030331623704E+00
    0.73179950784092295812E+00
    0.63977371056765308666E+00
    0.81043619241916686757E+00
    0.12140889795062710377E+01
    0.14090095701055422861E+01
    0.13227662628900871411E+01
    0.14304608748701401755E+01
    0.14066705131775911752E+01
    0.13038804341886662819E+01
    0.12911513102007545761E+01
    0.14174096824487456558E+01
    0.13931873266507097675E+01
    0.14434507505972042907E+01
    0.14920127089083545791E+01
    0.14498280248903068212E+01
    0.14503939796662024264E+01
    0.14919849830724940531E+01
    0.12045942983365887091E+01
    0.11436931078864847056E+01
    0.11373455237203400348E+01
    0.13493804056373543965E+01
    0.10809536095222589402E+01
    0.12571228207147568945E+01
    0.63186130995932210386E+00
    0.68327780549838568191E+00
    0.83396438778362180777E+00
    0.81343446856735512895E+00
    0.82844007971532596102E+00
    0.95225401084538863206E+00
    0.97629766977629350855E+00
    0.10699013434677560053E+01
    0.12322524771268219546E+01
    0.13736884846855164088E+01
    0.13494739826060155874E+01
    0.14266218102056540395E+01
    0.14859778561169894040E+01
    0.14887309990870309928E+01
    0.13682499186801424518E+01
    0.14742169850272306419E+01
    0.13127165609992579309E+01
    0.10593775443350383902E+01
    0.11170955651137981501E+01
    0.14776299312919851658E+01
    0.14892144751207858633E+01
    0.79137997885229915962E+00
    0.65730822942927114028E+00
    0.60372571374759786966E+00
    0.12069603610871559862E+01
    0.10113758960199266124E+01
    0.98993696109009166051E+00
    0.14047112458214625619E+01
    0.14307045779647591388E+01
    0.12277000424551745006E+01
    0.14833069840558841257E+01
    0.14258808282695349945E+01
    0.14061226084935518621E+01
    0.98342962310098269718E+00
    0.10083004105379234083E+01
    0.74464802543730268525E+00
    0.14761275353356742013E+01
    0.14954439749990837694E+01
    0.14696772759527438890E+01
    0.69440721708809649559E+00
    0.66939820137126171407E+00
    0.54160854659649404486E+00
    0.64359045933828307184E+00
    0.56700424533035376218E+00
    0.52007560787986106821E+00
    0.14780890709443708086E+01
    0.13642341788773728606E+01
    0.14681937189494500551E+01
    0.14844882934997516433E+01
    0.12494143410700297991E+01
    0.14711372797797919176E+01
    0.14079964913130167403E+01
    0.13840577745127995435E+01
    0.97454802963369524527E+00
    0.13075156358690673830E+01
    0.12273772945520988742E+01
    0.10865512127711336454E+01
    0.14392219152090361955E+01
    0.14079521157736101244E+01
    0.12737809660199848061E+01
    0.14834213625569288020E+01
    0.14660386486625325286E+01
    0.92054470235652119392E+00
    0.10097699128439661109E+01
    0.55044573012271014179E+00
    0.58540800907801870956E+00
    0.13800231464140102489E+01
    0.13452817643316601348E+01
    0.50678177419929970604E+00
    0.50645612645610205149E+00
    0.13959277575539663641E+01
    0.10038245016575091384E+01
    0.99486300432961682905E+00
    0.14646015082689027853E+01
    0.77312106385313494883E+00
    0.13809618130842489236E+01
    0.13403058929070696959E+01
    0.85076307510633619735E+00
    0.14747390352221738663E+01
    0.13685056860322437622E+01
    0.14772478108103523908E+01
    0.12950398278216725956E+01
    0.14701434206697348017E+01
    0.77768918918702834020E+00
    0.87462441238556010159E+00
    0.12503315217675610160E+01
    0.14479010660490745366E+01
    0.14896114095760299989E+01
    0.10789322035150812340E+01
    0.14889618515726694703E+01
    0.14555140703123909951E+01
    0.12016123441571380237E+01
    0.98309197655660951476E+00
    0.72144464184218304315E+00
    0.65550937994865932090E+00
    0.11036177021112296703E+01
    0.10631035788338438763E+01
    0.51881942504357903001E+00
    0.51700458373137614387E+00
    0.63764769122345654750E+00
    0.62588968349863882690E+00
    0.97747481473771369309E+00
    0.12293099087136050152E+01
    0.13941474677000516014E+01
    0.14661853828444681991E+01
    0.14743336067513483911E+01
    0.14361336043350645397E+01
    0.13138184376601678149E+01
    0.11913017773118228515E+01
    0.12526705455281947899E+01
    0.12250944378829533576E+01
    0.11231374617389489057E+01
    0.94242973616225356182E+00
    0.73559401378640143498E+00
    0.56725024614641816889E+00
    0.50483808066185065222E+00
    0.52016750448770654458E+00
    0.53037589344500202237E+00
    0.52963341456485035774E+00
    0.51049238088973269978E+00
    0.50569904991144298823E+00
    0.53971166072667620117E+00
    0.73089225714438266213E+00
    0.77599724523556012912E+00
    0.75417061365916659987E+00
    0.69003841013879552158E+00
    0.59403119923139346970E+00
    0.52276927017197405423E+00
    0.52213281831433588920E+00
