# vtk DataFile Version 3.0
LAPLACIEN  2D
ASCII
DATASET UNSTRUCTURED_GRID
 POINTS         391  float
  0.50371505999999999       0.50367786999999997        0.0000000000000000     
  0.29013556000000001       0.29014535000000002        0.0000000000000000     
  0.70165584999999997       0.71206597999999999        0.0000000000000000     
  0.70304188999999995       0.30176619999999998        0.0000000000000000     
  0.30920671999999999       0.71149227999999998        0.0000000000000000     
  0.79044983999999996       0.49884783999999999        0.0000000000000000     
  0.49102621000000002       0.20968644000000000        0.0000000000000000     
  0.49912957000000002       0.77208717000000004        0.0000000000000000     
  0.21724072999999999       0.48989389000000000        0.0000000000000000     
  0.83255933999999998       0.83046598000000005        0.0000000000000000     
  0.16646774000000000       0.17015694000000001        0.0000000000000000     
  0.83054514999999995       0.16736480000000001        0.0000000000000000     
  0.16953130999999999       0.83265739000000005        0.0000000000000000     
  0.42166445000000002       0.36345201999999999        0.0000000000000000     
  0.64462200999999997       0.56347807999999999        0.0000000000000000     
  0.35324633999999999       0.56311191000000005        0.0000000000000000     
  0.65456411000000003       0.84856860999999995        0.0000000000000000     
  0.35141477999999998       0.15563974000000000        0.0000000000000000     
  0.15290967000000000       0.35206625000000003        0.0000000000000000     
  0.82942241000000005       0.34936866000000000        0.0000000000000000     
  0.84390527000000004       0.64441694999999999        0.0000000000000000     
  0.63699174999999997       0.14284276000000001        0.0000000000000000     
  0.15620682999999999       0.64648446999999998        0.0000000000000000     
  0.36426062999999997       0.85756310999999996        0.0000000000000000     
  0.63489340999999999       0.40519052000000000        0.0000000000000000     
  0.52518872999999999       0.65957078000000002        0.0000000000000000     
  0.32158959999999998       0.42298103999999997        0.0000000000000000     
  0.58861710000000000       0.31711036999999997        0.0000000000000000     
  0.42078418000000001       0.69497151999999995        0.0000000000000000     
  0.48608786999999998       0.89334152000000000        0.0000000000000000     
   9.7084320000000002E-002  0.50000000000000000        0.0000000000000000     
  0.90291568000000000       0.50000000000000000        0.0000000000000000     
  0.51392453000000005       0.10668648999999999        0.0000000000000000     
  0.59792566999999996       0.73122754000000001        0.0000000000000000     
  0.74510058999999995       0.41124730999999998        0.0000000000000000     
  0.73212551999999997       0.90191560000000004        0.0000000000000000     
   9.7784830000000003E-002  0.26957329000000002        0.0000000000000000     
  0.26711221000000002        9.8671499999999995E-002   0.0000000000000000     
  0.90191560000000004       0.26787448000000003        0.0000000000000000     
  0.90118569000000004       0.73039821000000005        0.0000000000000000     
  0.73122947000000005        9.8017859999999998E-002   0.0000000000000000     
   9.8084400000000002E-002  0.73212551999999997        0.0000000000000000     
  0.26957329000000002       0.90221516999999996        0.0000000000000000     
  0.39283522999999998       0.25360379000000000        0.0000000000000000     
  0.74480864000000002       0.60495284999999999        0.0000000000000000     
  0.25505132000000003       0.60593640999999998        0.0000000000000000     
  0.52159297999999998       0.40671636000000000        0.0000000000000000     
  0.40768852000000000       0.47699891000000000        0.0000000000000000     
   9.1467049999999994E-002   9.1876959999999994E-002   0.0000000000000000     
  0.90842484999999995       0.90819225000000003        0.0000000000000000     
  0.90820104999999995        9.1566729999999999E-002   0.0000000000000000     
   9.1807449999999999E-002  0.90843574000000005        0.0000000000000000     
  0.27098960000000000       0.20527094000000001        0.0000000000000000     
  0.73457293999999995       0.79835387000000002        0.0000000000000000     
  0.79817773000000003       0.25713470999999999        0.0000000000000000     
  0.20747797000000001       0.72863946000000002        0.0000000000000000     
  0.20175195000000001       0.27583914999999998        0.0000000000000000     
  0.79603889000000005       0.72159035000000005        0.0000000000000000     
  0.71761666000000002       0.19748431999999999        0.0000000000000000     
  0.28462607000000001       0.80251899999999998        0.0000000000000000     
  0.69134598999999997       0.49261972999999998        0.0000000000000000     
  0.44720578999999999       0.58582935999999997        0.0000000000000000     
  0.24242269999999999       0.37228174000000003        0.0000000000000000     
  0.38265623999999998       0.93072131999999996        0.0000000000000000     
  0.60971754000000000       0.91988369000000003        0.0000000000000000     
   7.9163609999999995E-002  0.60979116000000000        0.0000000000000000     
  0.92010649000000000       0.61081183999999999        0.0000000000000000     
  0.61954008999999999        7.1530830000000004E-002   0.0000000000000000     
  0.91882012999999996       0.38917363999999999        0.0000000000000000     
  0.39086346000000000        8.0652249999999995E-002   0.0000000000000000     
   7.9183480000000001E-002  0.38966213000000000        0.0000000000000000     
  0.59114111999999996       0.49294315000000000        0.0000000000000000     
  0.63337980999999999       0.64485914000000000        0.0000000000000000     
  0.50012352000000004       0.29676539000000002        0.0000000000000000     
  0.82552601000000003       0.92753492000000004        0.0000000000000000     
  0.92774772999999999       0.82498556999999995        0.0000000000000000     
   7.1970870000000006E-002  0.17510291000000000        0.0000000000000000     
  0.17422821999999999        7.2635640000000001E-002   0.0000000000000000     
  0.82510813000000005        7.2134840000000006E-002   0.0000000000000000     
  0.92754665000000003       0.17446275999999999        0.0000000000000000     
  0.17501022999999999       0.92789951999999998        0.0000000000000000     
   7.2464680000000004E-002  0.82554053000000005        0.0000000000000000     
  0.30731587999999999       0.50885354999999999        0.0000000000000000     
  0.59033407999999998       0.22171178999999999        0.0000000000000000     
  0.40109191999999999       0.78725542000000004        0.0000000000000000     
  0.35420917000000002       0.63754104000000000        0.0000000000000000     
  0.15983976999999999       0.56665573000000002        0.0000000000000000     
  0.84108459999999996       0.56757886999999996        0.0000000000000000     
  0.83902096000000004       0.43344338999999998        0.0000000000000000     
  0.43230028999999998       0.16004268999999999        0.0000000000000000     
  0.57536027999999995       0.83041363999999995        0.0000000000000000     
  0.15771898000000001       0.42747892999999998        0.0000000000000000     
  0.34021692999999997       0.34221559000000001        0.0000000000000000     
  0.56002271999999997       0.57501117999999996        0.0000000000000000     
  0.65344329000000001       0.78147597999999996        0.0000000000000000     
   0.0000000000000000        0.0000000000000000        0.0000000000000000     
   1.0000000000000000        0.0000000000000000        0.0000000000000000     
   1.0000000000000000        1.0000000000000000        0.0000000000000000     
   0.0000000000000000        1.0000000000000000        0.0000000000000000     
  0.11111111000000000        0.0000000000000000        0.0000000000000000     
  0.22222222000000000        0.0000000000000000        0.0000000000000000     
  0.33333332999999998        0.0000000000000000        0.0000000000000000     
  0.44444444000000000        0.0000000000000000        0.0000000000000000     
  0.55555555999999995        0.0000000000000000        0.0000000000000000     
  0.66666667000000002        0.0000000000000000        0.0000000000000000     
  0.77777777999999997        0.0000000000000000        0.0000000000000000     
  0.88888889000000004        0.0000000000000000        0.0000000000000000     
   1.0000000000000000       0.11111111000000000        0.0000000000000000     
   1.0000000000000000       0.22222222000000000        0.0000000000000000     
   1.0000000000000000       0.33333332999999998        0.0000000000000000     
   1.0000000000000000       0.44444444000000000        0.0000000000000000     
   1.0000000000000000       0.55555555999999995        0.0000000000000000     
   1.0000000000000000       0.66666667000000002        0.0000000000000000     
   1.0000000000000000       0.77777777999999997        0.0000000000000000     
   1.0000000000000000       0.88888889000000004        0.0000000000000000     
  0.88888889000000004        1.0000000000000000        0.0000000000000000     
  0.77777777999999997        1.0000000000000000        0.0000000000000000     
  0.66666667000000002        1.0000000000000000        0.0000000000000000     
  0.55555555999999995        1.0000000000000000        0.0000000000000000     
  0.44444444000000000        1.0000000000000000        0.0000000000000000     
  0.33333332999999998        1.0000000000000000        0.0000000000000000     
  0.22222222000000000        1.0000000000000000        0.0000000000000000     
  0.11111111000000000        1.0000000000000000        0.0000000000000000     
   0.0000000000000000       0.11111111000000000        0.0000000000000000     
   0.0000000000000000       0.22222222000000000        0.0000000000000000     
[...]
 CELL_DATA         354
 SCALARS C float
 LOOKUP_TABLE default
    0.79972754880664009836E+00
    0.11291704505106321399E+01
    0.58744171518996779469E+00
    0.64739279851698094959E+00
    0.90544112191695280689E+00
    0.10068967302311975232E+01
    0.11327361671392819353E+01
    0.10837590867102842029E+01
    0.11728888359910860650E+01
    0.11735374139395444715E+01
    0.11566921016429483338E+01
    0.11736396471117371831E+01
    0.11592065918081690956E+01
    0.11581892254509189577E+01
    0.11636159140162647407E+01
    0.11564821322797229630E+01
    0.11574497747270968695E+01
    0.11689049307394250299E+01
    0.11668138752223851107E+01
    0.11576153575243557370E+01
    0.11653337683820610415E+01
    0.11603269424261528631E+01
    0.11770818126785194124E+01
    0.11717228042487222162E+01
    0.11769548024670872799E+01
    0.11714071653790991689E+01
    0.11759813907898342134E+01
    0.11689463722636039833E+01
    0.11530863608010488708E+01
    0.10871547897660507331E+01
    0.90458074873325833298E+00
    0.10065735222793790182E+01
    0.80348910403825102300E+00
    0.70158933972176018568E+00
    0.59434538244009527119E+00
    0.63668612517874567658E+00
    0.58421516387000160808E+00
    0.59258071333658401958E+00
    0.63626918848672298079E+00
    0.60433349506560363196E+00
    0.65064759072934585937E+00
    0.65362734569552127795E+00
    0.67113224535440774154E+00
    0.65868012951177934422E+00
    0.66019005520088192007E+00
    0.62101040129296758430E+00
    0.59449902391525633050E+00
    0.60544092175654240506E+00
    0.58779031666768233322E+00
    0.57602620314687380532E+00
    0.60540075660672787450E+00
    0.59143931521658055228E+00
    0.83747741629190186607E+00
    0.85910384748846924108E+00
    0.93354330314306366301E+00
    0.89070256140408987644E+00
    0.94135213626188529723E+00
    0.91487544898696659956E+00
    0.86728654548343553365E+00
    0.89133418982292267341E+00
    0.82167576735871072913E+00
    0.74937677651836520631E+00
    0.64356704901412187247E+00
    0.69627875048793463897E+00
    0.60888695058847419617E+00
    0.57734028213839216903E+00
    0.59797454562766172437E+00
    0.58434867040457461052E+00
    0.11486179905422218006E+01
    0.11742129116630892760E+01
    0.11736214498429295983E+01
    0.11647289494169446034E+01
    0.11722091529136202670E+01
    0.11654986803935236672E+01
    0.11853039268584215638E+01
    0.11875593598246672045E+01
    0.11943618080098072909E+01
    0.11827279332842928206E+01
    0.11486095487957865835E+01
    0.11746072771407449764E+01
    0.10869337562131309305E+01
    0.11164808146034816971E+01
    0.11785272126510974999E+01
    0.11110758974721595127E+01
    0.11555131097072346424E+01
    0.11356800401895370545E+01
    0.10763252769916209495E+01
    0.11527856966409428807E+01
    0.11518806663393164058E+01
    0.11490814253060377403E+01
    0.11166197881832786720E+01
    0.11114279771140020969E+01
    0.10851011633168115011E+01
    0.95380769549795596518E+00
    0.92525304379801298627E+00
    0.10141445882681048296E+01
    0.11262210233733491727E+01
    0.11906193964876827796E+01
    0.11675171628928253664E+01
    0.11873082565333579197E+01
    0.11785348565378430674E+01
    0.11915859188510837807E+01
    0.11923542445717982829E+01
    0.11486271212537395581E+01
    0.11445544045526172550E+01
    0.11125032687583946700E+01
    0.11132501710671047768E+01
    0.11446541930942659704E+01
    0.11392451970273869133E+01
    0.11176523759622234433E+01
    0.92941800237050842259E+00
    0.11113143546322568067E+01
    0.10233221916660437678E+01
    0.10086997953765610703E+01
    0.11846357823013127231E+01
    0.11045345481964394807E+01
    0.11547066070204736743E+01
    0.11758938402263390266E+01
    0.11874867760879399547E+01
    0.11218153188500019635E+01
    0.11471948090438455203E+01
    0.76360999851811528494E+00
    0.86812340050850067552E+00
    0.68943935205400264099E+00
    0.88560092513337806963E+00
    0.94764434496805982633E+00
    0.69986185946290768722E+00
    0.74922880032113070570E+00
    0.11176268255872592317E+01
    0.11636866607144487062E+01
    0.10705274529276842532E+01
    0.11806408832390193897E+01
    0.11712607420481053744E+01
    0.10758772418692854611E+01
    0.11208931072385126537E+01
    0.11911148089803036410E+01
    0.11779789555477586660E+01
    0.11825689727239809823E+01
    0.11784059834466527050E+01
    0.11629081165266599296E+01
    0.11847604228624206701E+01
    0.11886249496391134706E+01
    0.65633799175654594649E+00
    0.63325948789633712543E+00
    0.59019784989175549939E+00
    0.73315226025280999522E+00
    0.71684280603995897962E+00
    0.59468178162399609743E+00
    0.60088843664345303885E+00
    0.11639056133705127927E+01
    0.11582825754338228474E+01
    0.11430823309038500302E+01
    0.11634795080906539244E+01
    0.11255798530422349568E+01
    0.11633740218789747622E+01
    0.11904189646778742251E+01
    0.11795801866410833281E+01
    0.11641119165086784015E+01
    0.11912786571072837560E+01
    0.11825089118877949446E+01
    0.11668532144720709098E+01
    0.11757710557907854465E+01
    0.11832714900651848389E+01
    0.11898245598833976366E+01
    0.11792499161341087888E+01
    0.80675185977793195669E+00
    0.91702766815012959345E+00
    0.80471760611422316067E+00
    0.90778839795643062605E+00
    0.96942805426825806592E+00
    0.11861674234265315864E+01
    0.11659526127134369755E+01
    0.11845792488274708987E+01
    0.11924652229254675273E+01
    0.11697880414196171195E+01
    0.11220345524512498336E+01
    0.11681309922445413108E+01
    0.11689675671914507848E+01
    0.11051363568260073045E+01
    0.11354765083799347458E+01
    0.11727609868448922725E+01
    0.11938075379500259210E+01
    0.11812981629786865057E+01
    0.11918968577640469686E+01
    0.11881238574337804614E+01
    0.10724959968271010613E+01
    0.11729612336697350372E+01
    0.11098597815780359976E+01
    0.11252661976293887314E+01
    0.11663439379871258783E+01
    0.11568550082608126672E+01
    0.11564557492775200398E+01
    0.11542298246342637125E+01
    0.11520567941324284522E+01
    0.11219558117253227714E+01
    0.78650747178430668871E+00
    0.10199873819400737673E+01
    0.87855069706105681782E+00
    0.84398939033876818616E+00
    0.96900925395495218773E+00
    0.77638917620136682629E+00
    0.69894539856844328796E+00
    0.78925646218908918073E+00
    0.70586973741407632588E+00
    0.86043571537457208542E+00
    0.10761215903545617856E+01
    0.11502210425445911213E+01
    0.11340329391743668719E+01
    0.11496173180452227136E+01
    0.11486178853301287628E+01
    0.11679149250908327229E+01
    0.11684122590625221072E+01
    0.11902305062066782515E+01
    0.11916526468382837578E+01
    0.11870029108781265936E+01
    0.11818001292574165095E+01
    0.11966747595202265053E+01
    0.11938976760491568641E+01
    0.11849013687695690855E+01
    0.10749495941296416390E+01
    0.10576671421336860668E+01
    0.10562351654463648654E+01
    0.11740762939386772956E+01
    0.10936991024172333375E+01
    0.11556455851706466387E+01
    0.69858926737840987276E+00
    0.74542705638197048756E+00
    0.88068529239280568532E+00
    0.86158422650432753276E+00
    0.87604136466059800981E+00
    0.98676694708011791768E+00
    0.10062974246862439465E+01
    0.10771070349750597739E+01
    0.11689204427431159061E+01
    0.11997773668846427597E+01
    0.11924545235765033890E+01
    0.11950029862561748484E+01
    0.11600703300917767358E+01
    0.11612527217709587291E+01
    0.11281708213276038233E+01
    0.11610261373168204724E+01
    0.11769459243999729203E+01
    0.10757709173638436706E+01
    0.11078540156684133500E+01
    0.11686413939208257773E+01
    0.11695168658195236322E+01
    0.84139080511817943009E+00
    0.72150860653888115870E+00
    0.67225461622273996465E+00
    0.11443112523263470059E+01
    0.10393986662306440305E+01
    0.10205849261132453609E+01
    0.11943988076368969864E+01
    0.11871255158663620577E+01
    0.11372601284659051846E+01
    0.11806570080741431994E+01
    0.11978091509478538956E+01
    0.11919989593736111111E+01
    0.10104335341338765986E+01
    0.10338934713422134326E+01
    0.80076103920686036997E+00
    0.11622716268030672815E+01
    0.11599377115233249214E+01
    0.11692487883683067018E+01
    0.75448026173932447591E+00
    0.73212372110723678009E+00
    0.61356690492169463358E+00
    0.70841446625662674030E+00
    0.63816963844152518881E+00
    0.59260524563935734754E+00
    0.11611607170122042465E+01
    0.11258848591819148321E+01
    0.11618495403395208143E+01
    0.11679862379592307331E+01
    0.11452745079807056250E+01
    0.11761786993891991671E+01
    0.11991764215709697083E+01
    0.11907287207502821325E+01
    0.10033304053457741123E+01
    0.11709496908138508076E+01
    0.11535452609465806084E+01
    0.10857911540117677340E+01
    0.11494040645767906739E+01
    0.11508449049380988782E+01
    0.11148928728528155752E+01
    0.11791950293874580158E+01
    0.11785883715421421325E+01
    0.95960576240438821838E+00
    0.10352678686785514728E+01
    0.62207627354043182333E+00
    0.65475103945529045113E+00
    0.11795833075217203589E+01
    0.11864308845792339575E+01
    0.57638631584895405613E+00
    0.57693715058888439540E+00
    0.11944157760563534065E+01
    0.10266735440852099437E+01
    0.10199154639709042680E+01
    0.11625436777677864431E+01
    0.82569902630631686336E+00
    0.11892905922615213399E+01
    0.11312478932402210141E+01
    0.89616436540932331578E+00
    0.11662245243180946463E+01
    0.11781843151558772931E+01
    0.11863986059990836441E+01
    0.11579302595594755942E+01
    0.11841853918660738554E+01
    0.82927168251334681948E+00
    0.91592526500358728558E+00
    0.11586939738105528352E+01
    0.12009339002248906603E+01
    0.11669667436077724165E+01
    0.10867564670789613412E+01
    0.11621625290064860891E+01
    0.11906172553509415390E+01
    0.10988329830653922325E+01
    0.10107799675780464455E+01
    0.78030363177464923119E+00
    0.72145205769491349557E+00
    0.11044462727608743702E+01
    0.10797846043763148494E+01
    0.58592181022317069150E+00
    0.58227872503084321387E+00
    0.67861903927605815579E+00
    0.66990939982012853715E+00
    0.10101947595845381933E+01
    0.11721366632658356544E+01
    0.12532623089027172814E+01
    0.12776859950977561553E+01
    0.12789645400381006723E+01
    0.12650011766237159172E+01
    0.12148452985413649152E+01
    0.11587129707353147623E+01
    0.11883467533418241580E+01
    0.11734260642766751737E+01
    0.11223346470440456191E+01
    0.98220168509772642906E+00
    0.79452995635784695594E+00
    0.63762317498188780807E+00
    0.57638428150108467207E+00
    0.59371282996854390923E+00
    0.60420382048412213383E+00
    0.60328611993181047168E+00
    0.58364648952719400121E+00
    0.57539552540179883522E+00
    0.59906095564202277437E+00
    0.79119640870299012825E+00
    0.83277524394236346339E+00
    0.81292199120446095861E+00
    0.75382418511792947946E+00
    0.66449909375321081217E+00
    0.59533279869497934822E+00
    0.58672474021479081863E+00
