# vtk DataFile Version 3.0
LAPLACIEN  2D
ASCII
DATASET UNSTRUCTURED_GRID
 POINTS         391  float
  0.50371505999999999       0.50367786999999997        0.0000000000000000     
  0.29013556000000001       0.29014535000000002        0.0000000000000000     
  0.70165584999999997       0.71206597999999999        0.0000000000000000     
  0.70304188999999995       0.30176619999999998        0.0000000000000000     
  0.30920671999999999       0.71149227999999998        0.0000000000000000     
  0.79044983999999996       0.49884783999999999        0.0000000000000000     
  0.49102621000000002       0.20968644000000000        0.0000000000000000     
  0.49912957000000002       0.77208717000000004        0.0000000000000000     
  0.21724072999999999       0.48989389000000000        0.0000000000000000     
  0.83255933999999998       0.83046598000000005        0.0000000000000000     
  0.16646774000000000       0.17015694000000001        0.0000000000000000     
  0.83054514999999995       0.16736480000000001        0.0000000000000000     
  0.16953130999999999       0.83265739000000005        0.0000000000000000     
  0.42166445000000002       0.36345201999999999        0.0000000000000000     
  0.64462200999999997       0.56347807999999999        0.0000000000000000     
  0.35324633999999999       0.56311191000000005        0.0000000000000000     
  0.65456411000000003       0.84856860999999995        0.0000000000000000     
  0.35141477999999998       0.15563974000000000        0.0000000000000000     
  0.15290967000000000       0.35206625000000003        0.0000000000000000     
  0.82942241000000005       0.34936866000000000        0.0000000000000000     
  0.84390527000000004       0.64441694999999999        0.0000000000000000     
  0.63699174999999997       0.14284276000000001        0.0000000000000000     
  0.15620682999999999       0.64648446999999998        0.0000000000000000     
  0.36426062999999997       0.85756310999999996        0.0000000000000000     
  0.63489340999999999       0.40519052000000000        0.0000000000000000     
  0.52518872999999999       0.65957078000000002        0.0000000000000000     
  0.32158959999999998       0.42298103999999997        0.0000000000000000     
  0.58861710000000000       0.31711036999999997        0.0000000000000000     
  0.42078418000000001       0.69497151999999995        0.0000000000000000     
  0.48608786999999998       0.89334152000000000        0.0000000000000000     
   9.7084320000000002E-002  0.50000000000000000        0.0000000000000000     
  0.90291568000000000       0.50000000000000000        0.0000000000000000     
  0.51392453000000005       0.10668648999999999        0.0000000000000000     
  0.59792566999999996       0.73122754000000001        0.0000000000000000     
  0.74510058999999995       0.41124730999999998        0.0000000000000000     
  0.73212551999999997       0.90191560000000004        0.0000000000000000     
   9.7784830000000003E-002  0.26957329000000002        0.0000000000000000     
  0.26711221000000002        9.8671499999999995E-002   0.0000000000000000     
  0.90191560000000004       0.26787448000000003        0.0000000000000000     
  0.90118569000000004       0.73039821000000005        0.0000000000000000     
  0.73122947000000005        9.8017859999999998E-002   0.0000000000000000     
   9.8084400000000002E-002  0.73212551999999997        0.0000000000000000     
  0.26957329000000002       0.90221516999999996        0.0000000000000000     
  0.39283522999999998       0.25360379000000000        0.0000000000000000     
  0.74480864000000002       0.60495284999999999        0.0000000000000000     
  0.25505132000000003       0.60593640999999998        0.0000000000000000     
  0.52159297999999998       0.40671636000000000        0.0000000000000000     
  0.40768852000000000       0.47699891000000000        0.0000000000000000     
   9.1467049999999994E-002   9.1876959999999994E-002   0.0000000000000000     
  0.90842484999999995       0.90819225000000003        0.0000000000000000     
  0.90820104999999995        9.1566729999999999E-002   0.0000000000000000     
   9.1807449999999999E-002  0.90843574000000005        0.0000000000000000     
  0.27098960000000000       0.20527094000000001        0.0000000000000000     
  0.73457293999999995       0.79835387000000002        0.0000000000000000     
  0.79817773000000003       0.25713470999999999        0.0000000000000000     
  0.20747797000000001       0.72863946000000002        0.0000000000000000     
  0.20175195000000001       0.27583914999999998        0.0000000000000000     
  0.79603889000000005       0.72159035000000005        0.0000000000000000     
  0.71761666000000002       0.19748431999999999        0.0000000000000000     
  0.28462607000000001       0.80251899999999998        0.0000000000000000     
  0.69134598999999997       0.49261972999999998        0.0000000000000000     
  0.44720578999999999       0.58582935999999997        0.0000000000000000     
  0.24242269999999999       0.37228174000000003        0.0000000000000000     
  0.38265623999999998       0.93072131999999996        0.0000000000000000     
  0.60971754000000000       0.91988369000000003        0.0000000000000000     
   7.9163609999999995E-002  0.60979116000000000        0.0000000000000000     
  0.92010649000000000       0.61081183999999999        0.0000000000000000     
  0.61954008999999999        7.1530830000000004E-002   0.0000000000000000     
  0.91882012999999996       0.38917363999999999        0.0000000000000000     
  0.39086346000000000        8.0652249999999995E-002   0.0000000000000000     
   7.9183480000000001E-002  0.38966213000000000        0.0000000000000000     
  0.59114111999999996       0.49294315000000000        0.0000000000000000     
  0.63337980999999999       0.64485914000000000        0.0000000000000000     
  0.50012352000000004       0.29676539000000002        0.0000000000000000     
  0.82552601000000003       0.92753492000000004        0.0000000000000000     
  0.92774772999999999       0.82498556999999995        0.0000000000000000     
   7.1970870000000006E-002  0.17510291000000000        0.0000000000000000     
  0.17422821999999999        7.2635640000000001E-002   0.0000000000000000     
  0.82510813000000005        7.2134840000000006E-002   0.0000000000000000     
  0.92754665000000003       0.17446275999999999        0.0000000000000000     
  0.17501022999999999       0.92789951999999998        0.0000000000000000     
   7.2464680000000004E-002  0.82554053000000005        0.0000000000000000     
  0.30731587999999999       0.50885354999999999        0.0000000000000000     
  0.59033407999999998       0.22171178999999999        0.0000000000000000     
  0.40109191999999999       0.78725542000000004        0.0000000000000000     
  0.35420917000000002       0.63754104000000000        0.0000000000000000     
  0.15983976999999999       0.56665573000000002        0.0000000000000000     
  0.84108459999999996       0.56757886999999996        0.0000000000000000     
  0.83902096000000004       0.43344338999999998        0.0000000000000000     
  0.43230028999999998       0.16004268999999999        0.0000000000000000     
  0.57536027999999995       0.83041363999999995        0.0000000000000000     
  0.15771898000000001       0.42747892999999998        0.0000000000000000     
  0.34021692999999997       0.34221559000000001        0.0000000000000000     
  0.56002271999999997       0.57501117999999996        0.0000000000000000     
  0.65344329000000001       0.78147597999999996        0.0000000000000000     
   0.0000000000000000        0.0000000000000000        0.0000000000000000     
   1.0000000000000000        0.0000000000000000        0.0000000000000000     
   1.0000000000000000        1.0000000000000000        0.0000000000000000     
   0.0000000000000000        1.0000000000000000        0.0000000000000000     
  0.11111111000000000        0.0000000000000000        0.0000000000000000     
  0.22222222000000000        0.0000000000000000        0.0000000000000000     
  0.33333332999999998        0.0000000000000000        0.0000000000000000     
  0.44444444000000000        0.0000000000000000        0.0000000000000000     
  0.55555555999999995        0.0000000000000000        0.0000000000000000     
  0.66666667000000002        0.0000000000000000        0.0000000000000000     
  0.77777777999999997        0.0000000000000000        0.0000000000000000     
  0.88888889000000004        0.0000000000000000        0.0000000000000000     
   1.0000000000000000       0.11111111000000000        0.0000000000000000     
   1.0000000000000000       0.22222222000000000        0.0000000000000000     
   1.0000000000000000       0.33333332999999998        0.0000000000000000     
   1.0000000000000000       0.44444444000000000        0.0000000000000000     
   1.0000000000000000       0.55555555999999995        0.0000000000000000     
   1.0000000000000000       0.66666667000000002        0.0000000000000000     
   1.0000000000000000       0.77777777999999997        0.0000000000000000     
   1.0000000000000000       0.88888889000000004        0.0000000000000000     
  0.88888889000000004        1.0000000000000000        0.0000000000000000     
  0.77777777999999997        1.0000000000000000        0.0000000000000000     
  0.66666667000000002        1.0000000000000000        0.0000000000000000     
  0.55555555999999995        1.0000000000000000        0.0000000000000000     
  0.44444444000000000        1.0000000000000000        0.0000000000000000     
  0.33333332999999998        1.0000000000000000        0.0000000000000000     
  0.22222222000000000        1.0000000000000000        0.0000000000000000     
  0.11111111000000000        1.0000000000000000        0.0000000000000000     
   0.0000000000000000       0.11111111000000000        0.0000000000000000     
   0.0000000000000000       0.22222222000000000        0.0000000000000000     
[...]
 CELL_DATA         354
 SCALARS C float
 LOOKUP_TABLE default
    0.80737053678048420480E+00
    0.11252565427709346757E+01
    0.59631837924702313369E+00
    0.65417484949704574060E+00
    0.91205075248586087167E+00
    0.10118009326024905992E+01
    0.11285609185350466976E+01
    0.10837499996131307878E+01
    0.11703267494703049056E+01
    0.11722768126578249070E+01
    0.11558138849389885117E+01
    0.11726248190093071511E+01
    0.11572293626866512195E+01
    0.11561993248404138779E+01
    0.11618706154283666709E+01
    0.11550037950540794629E+01
    0.11563707371177132099E+01
    0.11680328605760827987E+01
    0.11658052802197524933E+01
    0.11570460569909783999E+01
    0.11613268764872604066E+01
    0.11568162040140128610E+01
    0.11751727009275056979E+01
    0.11680625538335409619E+01
    0.11752565653329281048E+01
    0.11699320734121032572E+01
    0.11732247429846012210E+01
    0.11681285394067040251E+01
    0.11484423015445779370E+01
    0.10875728159803541573E+01
    0.91096811324524284981E+00
    0.10116058465903499108E+01
    0.81111287091058348331E+00
    0.71029859073470502651E+00
    0.60367936265747745850E+00
    0.64583618354726224364E+00
    0.59344188287772448032E+00
    0.60183830877613186949E+00
    0.64539969148405818000E+00
    0.61367652854283050168E+00
    0.65963595046738499050E+00
    0.66261898332755586605E+00
    0.67996807579716045389E+00
    0.66765631549967086045E+00
    0.66915227673161270516E+00
    0.63029962474666323402E+00
    0.60377429377435842817E+00
    0.61469980207789021165E+00
    0.59690690349400410408E+00
    0.58493173469252190966E+00
    0.61317589948984008164E+00
    0.59968203332964464813E+00
    0.84477084802939728103E+00
    0.86618774372380891169E+00
    0.93971575851454358652E+00
    0.89741240510151121246E+00
    0.94730099919713350864E+00
    0.92117880046835587393E+00
    0.87417615698202866259E+00
    0.89795950279628322654E+00
    0.82905474842529336410E+00
    0.75756505323770451099E+00
    0.65264042323332660533E+00
    0.70492268767990218237E+00
    0.61811241747198841789E+00
    0.58657477453491813080E+00
    0.60594068187099470180E+00
    0.59295723859231497244E+00
    0.11464143278031293516E+01
    0.11714737343671652869E+01
    0.11726893077339266558E+01
    0.11622040522770720195E+01
    0.11708091646853238110E+01
    0.11642339669785748413E+01
    0.11848638762018712800E+01
    0.11873528225277838466E+01
    0.11936413271203853981E+01
    0.11807815740318332587E+01
    0.11469987216763237736E+01
    0.11723778329641332263E+01
    0.10896585614407965359E+01
    0.11161515232894083649E+01
    0.11780912989771594734E+01
    0.11107787775040349754E+01
    0.11537622878337900900E+01
    0.11297827241972748791E+01
    0.10682115343198992363E+01
    0.11496939894557509643E+01
    0.11497100989931279269E+01
    0.11429730686772701098E+01
    0.11081759373063637675E+01
    0.11128284732383642019E+01
    0.10851388832683879215E+01
    0.95949627670927606360E+00
    0.93148223493198356593E+00
    0.10188520404322765067E+01
    0.11239487711262152736E+01
    0.11904806737359254765E+01
    0.11662440125870321417E+01
    0.11868238145196157163E+01
    0.11770071212284700657E+01
    0.11911576396693972502E+01
    0.11913330673265547510E+01
    0.11436089522397157037E+01
    0.11402035783006465586E+01
    0.11077587808031146288E+01
    0.11079033774235762522E+01
    0.11407798831492319547E+01
    0.11363524536604676651E+01
    0.11174823540076646022E+01
    0.93579459036153556095E+00
    0.11111378216721590206E+01
    0.10270624701227433206E+01
    0.10129691978095889393E+01
    0.11832698514621957653E+01
    0.11056460134679435559E+01
    0.11530337980446296875E+01
    0.11758099398959038773E+01
    0.11871854232746443802E+01
    0.11212073124428902915E+01
    0.11473411853812498506E+01
    0.77167546265436981479E+00
    0.87501095753697721857E+00
    0.69822151109940955305E+00
    0.89239130553370904497E+00
    0.95365479275597819786E+00
    0.70847212225338851432E+00
    0.75742435465952218099E+00
    0.11182168305464985636E+01
    0.11623901213597416238E+01
    0.10735577501398396727E+01
    0.11807589832204963276E+01
    0.11708611158327795199E+01
    0.10794383178411139923E+01
    0.11205334663932922101E+01
    0.11905337242129594433E+01
    0.11758607762101469518E+01
    0.11818877903811610963E+01
    0.11768446583162579522E+01
    0.11613736361366073790E+01
    0.11833120833600203614E+01
    0.11879696088032081214E+01
    0.66537180040260390790E+00
    0.64245089666344934454E+00
    0.59940351030558558509E+00
    0.74154302854944509349E+00
    0.72539362291779063696E+00
    0.60396247062018826313E+00
    0.61018858609042159191E+00
    0.11624785528059085049E+01
    0.11540597565574541861E+01
    0.11391798354177125052E+01
    0.11609938481947768008E+01
    0.11209824076631114131E+01
    0.11603429159562415052E+01
    0.11897855393198049079E+01
    0.11779165926792516395E+01
    0.11627379722151718333E+01
    0.11907258750209610554E+01
    0.11812101920040203318E+01
    0.11673871767994024040E+01
    0.11747886350228016195E+01
    0.11828086548977958525E+01
    0.11896744014964724112E+01
    0.11797173985181164113E+01
    0.81448638913662818606E+00
    0.92350961265050268700E+00
    0.81254545294193059046E+00
    0.91424646357003913621E+00
    0.97513929350808936647E+00
    0.11848671604268852242E+01
    0.11641467500621520692E+01
    0.11838490225163782466E+01
    0.11896559213013506717E+01
    0.11673369100989414715E+01
    0.11217244027053205890E+01
    0.11657905967763757538E+01
    0.11694970264084365574E+01
    0.11064221179743598533E+01
    0.11363822532609191285E+01
    0.11706161499880098908E+01
    0.11928619659068082637E+01
    0.11789135227887246327E+01
    0.11914608505185024789E+01
    0.11870574611661921516E+01
    0.10761084123650728195E+01
    0.11707394124825329929E+01
    0.11106693691264069024E+01
    0.11268319868566853970E+01
    0.11649064719168216175E+01
    0.11512858447798413053E+01
    0.11531409031321200320E+01
    0.11496242013257684800E+01
    0.11483714281231174326E+01
    0.11173843674832832917E+01
    0.79447702019846144772E+00
    0.10247662840796836203E+01
    0.88534067815906847265E+00
    0.85137850319566055202E+00
    0.97459781953567936608E+00
    0.78421592642991622135E+00
    0.70775017189380273752E+00
    0.79710871727618770599E+00
    0.71453815816008903195E+00
    0.86735694205741198370E+00
    0.10680928689584594515E+01
    0.11470257394765028813E+01
    0.11274815748482192035E+01
    0.11476159498968425687E+01
    0.11447772369457491770E+01
    0.11666709138221733610E+01
    0.11662534535525812540E+01
    0.11895251311771599667E+01
    0.11908637509660033871E+01
    0.11862815409571156877E+01
    0.11798127332246768351E+01
    0.11951809786553275750E+01
    0.11924260143093492470E+01
    0.11828466284751852911E+01
    0.10668661566753119274E+01
    0.10461206084570644492E+01
    0.10447292322569425860E+01
    0.11741672912765568348E+01
    0.10959431107419617124E+01
    0.11562436307072210262E+01
    0.70728495344566966185E+00
    0.75371436184491102939E+00
    0.88753946771940583904E+00
    0.86864896031061655801E+00
    0.88298558548313821337E+00
    0.99219241118170620197E+00
    0.10111225970730475243E+01
    0.10790492513284513088E+01
    0.11669324099483944224E+01
    0.11993335773150364254E+01
    0.11927285376214260548E+01
    0.11950226449567775688E+01
    0.11559784070080607599E+01
    0.11592306484375702880E+01
    0.11225235579389669649E+01
    0.11572152290967507859E+01
    0.11767478994957802918E+01
    0.10791700206055505618E+01
    0.11077924940788230757E+01
    0.11661575907368586513E+01
    0.11686948258371416820E+01
    0.84865997151038330415E+00
    0.73008684008699609169E+00
    0.68115636110123600755E+00
    0.11412504926689357454E+01
    0.10437699153841217825E+01
    0.10249470128444244654E+01
    0.11940437534758308047E+01
    0.11849936081649230513E+01
    0.11335825798388485808E+01
    0.11800048606766349035E+01
    0.11962603158098135125E+01
    0.11904552601639335485E+01
    0.10150371688418706739E+01
    0.10385951356391494027E+01
    0.80839809761454928250E+00
    0.11592733055210322490E+01
    0.11570592348112009873E+01
    0.11676543022723391285E+01
    0.76269467129986168175E+00
    0.74059734150713307788E+00
    0.62281358821897303546E+00
    0.71705405396427124298E+00
    0.64741584576687682961E+00
    0.60187455941671630377E+00
    0.11609326212304633685E+01
    0.11217962913572172567E+01
    0.11581320610027259210E+01
    0.11647518676020591766E+01
    0.11425232854594964405E+01
    0.11757486711300917381E+01
    0.11981171988087704339E+01
    0.11896996368738430583E+01
    0.10082517860451900571E+01
    0.11713382824264069182E+01
    0.11520030187486967055E+01
    0.10860109161580182580E+01
    0.11471046530955004705E+01
    0.11466580916642692412E+01
    0.11083474609000631972E+01
    0.11777591031262524268E+01
    0.11776542230591715565E+01
    0.96554293040556926631E+00
    0.10388240547988196738E+01
    0.63137012015186266822E+00
    0.66385609422660563084E+00
    0.11791520601757907727E+01
    0.11853680727192164035E+01
    0.58527716533102280838E+00
    0.58596332009131490981E+00
    0.11948295096601941889E+01
    0.10303727234122099787E+01
    0.10249349439512502880E+01
    0.11599251925029210319E+01
    0.83320124901190428801E+00
    0.11888616288470768012E+01
    0.11241369319198357690E+01
    0.90271120784011893434E+00
    0.11637316507366537444E+01
    0.11786150485912658681E+01
    0.11854228466201099934E+01
    0.11590630656362006512E+01
    0.11834023827455624200E+01
    0.83673891794921539944E+00
    0.92244593594215085197E+00
    0.11583172265090322384E+01
    0.12008152064266199854E+01
    0.11647767927166579049E+01
    0.10885936706674734786E+01
    0.11608307809071665151E+01
    0.11899550138294865409E+01
    0.10882931068473926661E+01
    0.10159171654855274625E+01
    0.78821691792973225255E+00
    0.72987898465854550434E+00
    0.11059329436347560272E+01
    0.10795120398085011892E+01
    0.59466392520340083383E+00
    0.59083621069617664467E+00
    0.68460678179259881748E+00
    0.67606324180018229075E+00
    0.10150468070125873155E+01
    0.11716435290032505279E+01
    0.12528996209512848203E+01
    0.12756612366481490106E+01
    0.12764221435990164011E+01
    0.12637802387507535151E+01
    0.12153890533369353655E+01
    0.11583144330676122813E+01
    0.11897977587458981041E+01
    0.11748267006158850112E+01
    0.11223521858997340672E+01
    0.98761638567841303349E+00
    0.80221315125828274173E+00
    0.64672950429131548233E+00
    0.58557458768074521771E+00
    0.60304184718480735583E+00
    0.61354449236101027410E+00
    0.61260274276400294990E+00
    0.59296797410897217340E+00
    0.58438625492987528176E+00
    0.60702274448316528854E+00
    0.79894944414999957694E+00
    0.84006402903185317665E+00
    0.82044333789661516576E+00
    0.76195161371030828423E+00
    0.67345053249145270247E+00
    0.60457983021486172426E+00
    0.59520999475609859264E+00
