# vtk DataFile Version 3.0
LAPLACIEN  2D
ASCII
DATASET UNSTRUCTURED_GRID
 POINTS         391  float
  0.50371505999999999       0.50367786999999997        0.0000000000000000     
  0.29013556000000001       0.29014535000000002        0.0000000000000000     
  0.70165584999999997       0.71206597999999999        0.0000000000000000     
  0.70304188999999995       0.30176619999999998        0.0000000000000000     
  0.30920671999999999       0.71149227999999998        0.0000000000000000     
  0.79044983999999996       0.49884783999999999        0.0000000000000000     
  0.49102621000000002       0.20968644000000000        0.0000000000000000     
  0.49912957000000002       0.77208717000000004        0.0000000000000000     
  0.21724072999999999       0.48989389000000000        0.0000000000000000     
  0.83255933999999998       0.83046598000000005        0.0000000000000000     
  0.16646774000000000       0.17015694000000001        0.0000000000000000     
  0.83054514999999995       0.16736480000000001        0.0000000000000000     
  0.16953130999999999       0.83265739000000005        0.0000000000000000     
  0.42166445000000002       0.36345201999999999        0.0000000000000000     
  0.64462200999999997       0.56347807999999999        0.0000000000000000     
  0.35324633999999999       0.56311191000000005        0.0000000000000000     
  0.65456411000000003       0.84856860999999995        0.0000000000000000     
  0.35141477999999998       0.15563974000000000        0.0000000000000000     
  0.15290967000000000       0.35206625000000003        0.0000000000000000     
  0.82942241000000005       0.34936866000000000        0.0000000000000000     
  0.84390527000000004       0.64441694999999999        0.0000000000000000     
  0.63699174999999997       0.14284276000000001        0.0000000000000000     
  0.15620682999999999       0.64648446999999998        0.0000000000000000     
  0.36426062999999997       0.85756310999999996        0.0000000000000000     
  0.63489340999999999       0.40519052000000000        0.0000000000000000     
  0.52518872999999999       0.65957078000000002        0.0000000000000000     
  0.32158959999999998       0.42298103999999997        0.0000000000000000     
  0.58861710000000000       0.31711036999999997        0.0000000000000000     
  0.42078418000000001       0.69497151999999995        0.0000000000000000     
  0.48608786999999998       0.89334152000000000        0.0000000000000000     
   9.7084320000000002E-002  0.50000000000000000        0.0000000000000000     
  0.90291568000000000       0.50000000000000000        0.0000000000000000     
  0.51392453000000005       0.10668648999999999        0.0000000000000000     
  0.59792566999999996       0.73122754000000001        0.0000000000000000     
  0.74510058999999995       0.41124730999999998        0.0000000000000000     
  0.73212551999999997       0.90191560000000004        0.0000000000000000     
   9.7784830000000003E-002  0.26957329000000002        0.0000000000000000     
  0.26711221000000002        9.8671499999999995E-002   0.0000000000000000     
  0.90191560000000004       0.26787448000000003        0.0000000000000000     
  0.90118569000000004       0.73039821000000005        0.0000000000000000     
  0.73122947000000005        9.8017859999999998E-002   0.0000000000000000     
   9.8084400000000002E-002  0.73212551999999997        0.0000000000000000     
  0.26957329000000002       0.90221516999999996        0.0000000000000000     
  0.39283522999999998       0.25360379000000000        0.0000000000000000     
  0.74480864000000002       0.60495284999999999        0.0000000000000000     
  0.25505132000000003       0.60593640999999998        0.0000000000000000     
  0.52159297999999998       0.40671636000000000        0.0000000000000000     
  0.40768852000000000       0.47699891000000000        0.0000000000000000     
   9.1467049999999994E-002   9.1876959999999994E-002   0.0000000000000000     
  0.90842484999999995       0.90819225000000003        0.0000000000000000     
  0.90820104999999995        9.1566729999999999E-002   0.0000000000000000     
   9.1807449999999999E-002  0.90843574000000005        0.0000000000000000     
  0.27098960000000000       0.20527094000000001        0.0000000000000000     
  0.73457293999999995       0.79835387000000002        0.0000000000000000     
  0.79817773000000003       0.25713470999999999        0.0000000000000000     
  0.20747797000000001       0.72863946000000002        0.0000000000000000     
  0.20175195000000001       0.27583914999999998        0.0000000000000000     
  0.79603889000000005       0.72159035000000005        0.0000000000000000     
  0.71761666000000002       0.19748431999999999        0.0000000000000000     
  0.28462607000000001       0.80251899999999998        0.0000000000000000     
  0.69134598999999997       0.49261972999999998        0.0000000000000000     
  0.44720578999999999       0.58582935999999997        0.0000000000000000     
  0.24242269999999999       0.37228174000000003        0.0000000000000000     
  0.38265623999999998       0.93072131999999996        0.0000000000000000     
  0.60971754000000000       0.91988369000000003        0.0000000000000000     
   7.9163609999999995E-002  0.60979116000000000        0.0000000000000000     
  0.92010649000000000       0.61081183999999999        0.0000000000000000     
  0.61954008999999999        7.1530830000000004E-002   0.0000000000000000     
  0.91882012999999996       0.38917363999999999        0.0000000000000000     
  0.39086346000000000        8.0652249999999995E-002   0.0000000000000000     
   7.9183480000000001E-002  0.38966213000000000        0.0000000000000000     
  0.59114111999999996       0.49294315000000000        0.0000000000000000     
  0.63337980999999999       0.64485914000000000        0.0000000000000000     
  0.50012352000000004       0.29676539000000002        0.0000000000000000     
  0.82552601000000003       0.92753492000000004        0.0000000000000000     
  0.92774772999999999       0.82498556999999995        0.0000000000000000     
   7.1970870000000006E-002  0.17510291000000000        0.0000000000000000     
  0.17422821999999999        7.2635640000000001E-002   0.0000000000000000     
  0.82510813000000005        7.2134840000000006E-002   0.0000000000000000     
  0.92754665000000003       0.17446275999999999        0.0000000000000000     
  0.17501022999999999       0.92789951999999998        0.0000000000000000     
   7.2464680000000004E-002  0.82554053000000005        0.0000000000000000     
  0.30731587999999999       0.50885354999999999        0.0000000000000000     
  0.59033407999999998       0.22171178999999999        0.0000000000000000     
  0.40109191999999999       0.78725542000000004        0.0000000000000000     
  0.35420917000000002       0.63754104000000000        0.0000000000000000     
  0.15983976999999999       0.56665573000000002        0.0000000000000000     
  0.84108459999999996       0.56757886999999996        0.0000000000000000     
  0.83902096000000004       0.43344338999999998        0.0000000000000000     
  0.43230028999999998       0.16004268999999999        0.0000000000000000     
  0.57536027999999995       0.83041363999999995        0.0000000000000000     
  0.15771898000000001       0.42747892999999998        0.0000000000000000     
  0.34021692999999997       0.34221559000000001        0.0000000000000000     
  0.56002271999999997       0.57501117999999996        0.0000000000000000     
  0.65344329000000001       0.78147597999999996        0.0000000000000000     
   0.0000000000000000        0.0000000000000000        0.0000000000000000     
   1.0000000000000000        0.0000000000000000        0.0000000000000000     
   1.0000000000000000        1.0000000000000000        0.0000000000000000     
   0.0000000000000000        1.0000000000000000        0.0000000000000000     
  0.11111111000000000        0.0000000000000000        0.0000000000000000     
  0.22222222000000000        0.0000000000000000        0.0000000000000000     
  0.33333332999999998        0.0000000000000000        0.0000000000000000     
  0.44444444000000000        0.0000000000000000        0.0000000000000000     
  0.55555555999999995        0.0000000000000000        0.0000000000000000     
  0.66666667000000002        0.0000000000000000        0.0000000000000000     
  0.77777777999999997        0.0000000000000000        0.0000000000000000     
  0.88888889000000004        0.0000000000000000        0.0000000000000000     
   1.0000000000000000       0.11111111000000000        0.0000000000000000     
   1.0000000000000000       0.22222222000000000        0.0000000000000000     
   1.0000000000000000       0.33333332999999998        0.0000000000000000     
   1.0000000000000000       0.44444444000000000        0.0000000000000000     
   1.0000000000000000       0.55555555999999995        0.0000000000000000     
   1.0000000000000000       0.66666667000000002        0.0000000000000000     
   1.0000000000000000       0.77777777999999997        0.0000000000000000     
   1.0000000000000000       0.88888889000000004        0.0000000000000000     
  0.88888889000000004        1.0000000000000000        0.0000000000000000     
  0.77777777999999997        1.0000000000000000        0.0000000000000000     
  0.66666667000000002        1.0000000000000000        0.0000000000000000     
  0.55555555999999995        1.0000000000000000        0.0000000000000000     
  0.44444444000000000        1.0000000000000000        0.0000000000000000     
  0.33333332999999998        1.0000000000000000        0.0000000000000000     
  0.22222222000000000        1.0000000000000000        0.0000000000000000     
  0.11111111000000000        1.0000000000000000        0.0000000000000000     
   0.0000000000000000       0.11111111000000000        0.0000000000000000     
   0.0000000000000000       0.22222222000000000        0.0000000000000000     
[...]
 CELL_DATA         354
 SCALARS C float
 LOOKUP_TABLE default
    0.74255007319150023726E+00
    0.11471817320956603226E+01
    0.51938170225516566703E+00
    0.59888607779385250041E+00
    0.85994895807751703387E+00
    0.97491871635772286986E+00
    0.12363021324650631527E+01
    0.11079477376506412512E+01
    0.13430293197316700571E+01
    0.14129540322860076884E+01
    0.14770988991384259581E+01
    0.14632985666285824866E+01
    0.14867813319654821225E+01
    0.14906610753470361797E+01
    0.14830744148873384880E+01
    0.14874969449479287231E+01
    0.14545740616646647414E+01
    0.14091309140662073851E+01
    0.12603988924943387850E+01
    0.13339697957753791080E+01
    0.12175789616642382907E+01
    0.12548953855905597976E+01
    0.13382560771145366463E+01
    0.12992929016729863889E+01
    0.13475921080034174437E+01
    0.13274807037534432919E+01
    0.12580471071253573889E+01
    0.12961841404650567000E+01
    0.11854205475819539206E+01
    0.10803503820328412832E+01
    0.85783590784573870991E+00
    0.97263578002810091583E+00
    0.74681208400886278653E+00
    0.63489043770398945199E+00
    0.52208676062231218484E+00
    0.56619071793550201921E+00
    0.51320494304510877459E+00
    0.52080014049470457760E+00
    0.56548047480149632449E+00
    0.53172657678603840736E+00
    0.58016877161455293610E+00
    0.58337517985417974842E+00
    0.60214633124425898103E+00
    0.58862056314767641219E+00
    0.59076726319274563970E+00
    0.54845503249055060913E+00
    0.52188302021554122678E+00
    0.53279149502816425255E+00
    0.51709377530513800370E+00
    0.50781042401952025678E+00
    0.54727898920244533176E+00
    0.52842660719202083630E+00
    0.78358343669152641375E+00
    0.80694590294372614547E+00
    0.88960612250175630233E+00
    0.84137851044111844345E+00
    0.89810917516598232080E+00
    0.86857744492607547038E+00
    0.81617946894262249913E+00
    0.84277939978560756362E+00
    0.76642439663435468766E+00
    0.68653905741901377624E+00
    0.57231927970345064516E+00
    0.62939535075389396734E+00
    0.53717509387275153010E+00
    0.50592954659560618325E+00
    0.53690490665361345624E+00
    0.51793929276502004289E+00
    0.14362495739096750036E+01
    0.14890539472121244735E+01
    0.14863090787651780378E+01
    0.14736253519481017360E+01
    0.14936482289365058396E+01
    0.14870698542626683558E+01
    0.14674408499589635113E+01
    0.14246483276190802236E+01
    0.14525583953280269967E+01
    0.14914709784411135374E+01
    0.12189036302054863103E+01
    0.13100762894655044732E+01
    0.10741638862859912429E+01
    0.11585650967869327577E+01
    0.13179540799622009306E+01
    0.11212460660488285935E+01
    0.14457373392430028503E+01
    0.13226780378443090402E+01
    0.11985833009405206795E+01
    0.14153606061825725337E+01
    0.14367525239929994640E+01
    0.13842752010987975364E+01
    0.12651011156186828810E+01
    0.11265523891808613133E+01
    0.10888860883503950205E+01
    0.91830163935815511955E+00
    0.88525615527257650594E+00
    0.98649807272399936409E+00
    0.11634617920611296515E+01
    0.14235921285356727406E+01
    0.14889453085084376482E+01
    0.14543356355050867101E+01
    0.14908693729154576246E+01
    0.14215214668885229887E+01
    0.14804686084660134693E+01
    0.14111859575816612100E+01
    0.14052169082326997351E+01
    0.12981108221061932184E+01
    0.12987428219159422582E+01
    0.14289453209408917722E+01
    0.12290144612108473421E+01
    0.11539203625410814347E+01
    0.89094993079365703004E+00
    0.11437175121363671870E+01
    0.99890764166865020357E+00
    0.98209591858039835266E+00
    0.13961137986497675900E+01
    0.11026138585915055135E+01
    0.12239112325316272578E+01
    0.13501767144310370394E+01
    0.13500595075406676138E+01
    0.11284130252230284430E+01
    0.12222106025184373834E+01
    0.70352780460286046260E+00
    0.81975428505485936626E+00
    0.62317996745448889229E+00
    0.84060854030138809634E+00
    0.91073729301474903863E+00
    0.63401798204581794050E+00
    0.68778798869250412640E+00
    0.11354458165028546990E+01
    0.12897865757268158760E+01
    0.10503258562290287426E+01
    0.13398403188658805085E+01
    0.12784506448868018236E+01
    0.10544499199361356823E+01
    0.11571997033936520793E+01
    0.14704381101353309891E+01
    0.14932106989816031906E+01
    0.14137868309272128009E+01
    0.14921982735553274146E+01
    0.14796260501737528159E+01
    0.14598953080409902139E+01
    0.14292396923755106286E+01
    0.58643490632024275477E+00
    0.56163803053208516403E+00
    0.51886645404016529248E+00
    0.67090305782609815921E+00
    0.65259248237326517028E+00
    0.52217017669546805791E+00
    0.52820720210604266143E+00
    0.14797747522744004733E+01
    0.14418976791868154397E+01
    0.13889589440983551860E+01
    0.14697450290143723173E+01
    0.13489318325038277546E+01
    0.14766946971991710136E+01
    0.14631086677181674993E+01
    0.14935433415643113442E+01
    0.14894026220434899432E+01
    0.14587328739284448620E+01
    0.14919074001210232971E+01
    0.13051424395459407801E+01
    0.14620219319729774732E+01
    0.14350679404991544263E+01
    0.14089954842869527596E+01
    0.13457219401423348160E+01
    0.75251570180049409675E+00
    0.87744905282368301780E+00
    0.75038437183941897324E+00
    0.86617354539433710769E+00
    0.93618903906587325192E+00
    0.14441117405342389635E+01
    0.14881892670329599504E+01
    0.14740757777673469953E+01
    0.14868926084838480772E+01
    0.14910797363643450986E+01
    0.11422418716278555095E+01
    0.12771151373698552689E+01
    0.13110994459893219322E+01
    0.11002627753347165029E+01
    0.12007563687384030793E+01
    0.14839126171424066314E+01
    0.14788629900657745964E+01
    0.14907143749441165159E+01
    0.14630381601723094764E+01
    0.14903366039338359350E+01
    0.10564570441456417882E+01
    0.12997012866383201857E+01
    0.11491524628969218558E+01
    0.11591988287678216540E+01
    0.12826702786658723543E+01
    0.14432018040737517595E+01
    0.14718441524594940706E+01
    0.14274941134817078492E+01
    0.14712898788621890933E+01
    0.13577810442860818174E+01
    0.73023880822390430101E+00
    0.99309506942547964847E+00
    0.83222683705251587760E+00
    0.79432337989184165217E+00
    0.93471589488702999660E+00
    0.71682237891847855327E+00
    0.63303480886503615821E+00
    0.73180653369447901113E+00
    0.63978405841061802839E+00
    0.81044422359452350513E+00
    0.12141130906122634681E+01
    0.14090027341883251122E+01
    0.13227717477864826545E+01
    0.14304572542043949568E+01
    0.14066662955907327515E+01
    0.13038706513065787540E+01
    0.12911447785644720732E+01
    0.14173990982553885676E+01
    0.13931780728706275596E+01
    0.14434398485748898278E+01
    0.14920032000598331123E+01
    0.14498153933232620361E+01
    0.14503851139702548245E+01
    0.14919779424210837249E+01
    0.12046223186260800464E+01
    0.11437398890043259936E+01
    0.11374018971283350599E+01
    0.13493742794548546637E+01
    0.10809493355672041837E+01
    0.12571141973204751352E+01
    0.63187590256142112111E+00
    0.68327971166013390381E+00
    0.83395848048921317197E+00
    0.81342906246985657859E+00
    0.82843793112849528626E+00
    0.95224694725275038643E+00
    0.97629501467458124075E+00
    0.10698862906393546979E+01
    0.12322443062814756320E+01
    0.13736761405809210235E+01
    0.13494642749667951076E+01
    0.14266072826026798825E+01
    0.14859634641146366452E+01
    0.14887232385413446956E+01
    0.13682579741769600457E+01
    0.14742091596380304530E+01
    0.13127079363313305382E+01
    0.10593741823483682207E+01
    0.11170969649577244809E+01
    0.14776225312965978187E+01
    0.14892067571813303317E+01
    0.79137642796203022666E+00
    0.65730661536243806253E+00
    0.60373750488063193664E+00
    0.12069504241012967150E+01
    0.10113679470200587218E+01
    0.98994106108691648505E+00
    0.14046975010314508570E+01
    0.14306909085325010267E+01
    0.12277024929730728786E+01
    0.14832955772139457817E+01
    0.14258702012138142479E+01
    0.14061164159069210466E+01
    0.98342132733203013739E+00
    0.10082885880960645864E+01
    0.74465994419575032293E+00
    0.14761211666607549908E+01
    0.14954357951812040639E+01
    0.14696700844983738854E+01
    0.69440728317777655754E+00
    0.66939645531776459375E+00
    0.54162026802863438846E+00
    0.64359370092721102097E+00
    0.56700890717328245039E+00
    0.52008673646655756428E+00
    0.14780830133123052939E+01
    0.13642415239969709617E+01
    0.14681855346822620945E+01
    0.14844780270606316996E+01
    0.12494136687784291873E+01
    0.14711280826655759313E+01
    0.14079846011159506958E+01
    0.13840510489811872485E+01
    0.97455129480688618138E+00
    0.13074976565902673986E+01
    0.12273634891416633774E+01
    0.10865541644662177756E+01
    0.14392186066939418598E+01
    0.14079458115773557658E+01
    0.12737953727435078477E+01
    0.14834125903346027098E+01
    0.14660331372786825632E+01
    0.92054484689445592593E+00
    0.10097671060861528325E+01
    0.55045272247459831050E+00
    0.58541337972143758783E+00
    0.13800148387701232089E+01
    0.13452747250766439180E+01
    0.50678936926215034653E+00
    0.50646386140207666493E+00
    0.13959153645280293343E+01
    0.10038193412101761304E+01
    0.99485730871815558629E+00
    0.14645956213355266762E+01
    0.77311991141951186268E+00
    0.13809543662210550519E+01
    0.13402983541383648447E+01
    0.85077054361786053072E+00
    0.14747330157495164293E+01
    0.13685011586329203226E+01
    0.14772380472637105520E+01
    0.12950432179475568351E+01
    0.14701345766665894210E+01
    0.77768399703449697657E+00
    0.87461868922598440257E+00
    0.12503208309487063854E+01
    0.14478885760650392900E+01
    0.14896034198508485424E+01
    0.10789203847739614606E+01
    0.14889554225663739206E+01
    0.14555026003389046618E+01
    0.12016350447695480774E+01
    0.98309090443316227148E+00
    0.72145156179519176476E+00
    0.65552829278519220146E+00
    0.11036265938047247204E+01
    0.10631208888272039026E+01
    0.51882237465797342857E+00
    0.51700590569812110431E+00
    0.63764021071354792802E+00
    0.62588535929910360522E+00
    0.97748410755691672591E+00
    0.12293219537956927567E+01
    0.13941540020178178061E+01
    0.14661874131910885843E+01
    0.14743356911198177706E+01
    0.14361382560679412101E+01
    0.13138258412334740122E+01
    0.11913180543786006105E+01
    0.12526877822678319507E+01
    0.12251120950670220111E+01
    0.11231558181276839470E+01
    0.94244838111544093628E+00
    0.73561213232884914426E+00
    0.56725849527968386088E+00
    0.50484409751829972812E+00
    0.52017958490501547963E+00
    0.53038953216892492648E+00
    0.52964757222855884944E+00
    0.51050176580912309809E+00
    0.50570404053567685754E+00
    0.53970969107028166079E+00
    0.73091255541685096198E+00
    0.77602115416338024456E+00
    0.75419378573255690945E+00
    0.69005935763829207019E+00
    0.59404718230408826152E+00
    0.52278045125508521007E+00
    0.52213418053055904444E+00
