# vtk DataFile Version 3.0
LAPLACIEN  2D
ASCII
DATASET UNSTRUCTURED_GRID
 POINTS         391  float
  0.50371505999999999       0.50367786999999997        0.0000000000000000     
  0.29013556000000001       0.29014535000000002        0.0000000000000000     
  0.70165584999999997       0.71206597999999999        0.0000000000000000     
  0.70304188999999995       0.30176619999999998        0.0000000000000000     
  0.30920671999999999       0.71149227999999998        0.0000000000000000     
  0.79044983999999996       0.49884783999999999        0.0000000000000000     
  0.49102621000000002       0.20968644000000000        0.0000000000000000     
  0.49912957000000002       0.77208717000000004        0.0000000000000000     
  0.21724072999999999       0.48989389000000000        0.0000000000000000     
  0.83255933999999998       0.83046598000000005        0.0000000000000000     
  0.16646774000000000       0.17015694000000001        0.0000000000000000     
  0.83054514999999995       0.16736480000000001        0.0000000000000000     
  0.16953130999999999       0.83265739000000005        0.0000000000000000     
  0.42166445000000002       0.36345201999999999        0.0000000000000000     
  0.64462200999999997       0.56347807999999999        0.0000000000000000     
  0.35324633999999999       0.56311191000000005        0.0000000000000000     
  0.65456411000000003       0.84856860999999995        0.0000000000000000     
  0.35141477999999998       0.15563974000000000        0.0000000000000000     
  0.15290967000000000       0.35206625000000003        0.0000000000000000     
  0.82942241000000005       0.34936866000000000        0.0000000000000000     
  0.84390527000000004       0.64441694999999999        0.0000000000000000     
  0.63699174999999997       0.14284276000000001        0.0000000000000000     
  0.15620682999999999       0.64648446999999998        0.0000000000000000     
  0.36426062999999997       0.85756310999999996        0.0000000000000000     
  0.63489340999999999       0.40519052000000000        0.0000000000000000     
  0.52518872999999999       0.65957078000000002        0.0000000000000000     
  0.32158959999999998       0.42298103999999997        0.0000000000000000     
  0.58861710000000000       0.31711036999999997        0.0000000000000000     
  0.42078418000000001       0.69497151999999995        0.0000000000000000     
  0.48608786999999998       0.89334152000000000        0.0000000000000000     
   9.7084320000000002E-002  0.50000000000000000        0.0000000000000000     
  0.90291568000000000       0.50000000000000000        0.0000000000000000     
  0.51392453000000005       0.10668648999999999        0.0000000000000000     
  0.59792566999999996       0.73122754000000001        0.0000000000000000     
  0.74510058999999995       0.41124730999999998        0.0000000000000000     
  0.73212551999999997       0.90191560000000004        0.0000000000000000     
   9.7784830000000003E-002  0.26957329000000002        0.0000000000000000     
  0.26711221000000002        9.8671499999999995E-002   0.0000000000000000     
  0.90191560000000004       0.26787448000000003        0.0000000000000000     
  0.90118569000000004       0.73039821000000005        0.0000000000000000     
  0.73122947000000005        9.8017859999999998E-002   0.0000000000000000     
   9.8084400000000002E-002  0.73212551999999997        0.0000000000000000     
  0.26957329000000002       0.90221516999999996        0.0000000000000000     
  0.39283522999999998       0.25360379000000000        0.0000000000000000     
  0.74480864000000002       0.60495284999999999        0.0000000000000000     
  0.25505132000000003       0.60593640999999998        0.0000000000000000     
  0.52159297999999998       0.40671636000000000        0.0000000000000000     
  0.40768852000000000       0.47699891000000000        0.0000000000000000     
   9.1467049999999994E-002   9.1876959999999994E-002   0.0000000000000000     
  0.90842484999999995       0.90819225000000003        0.0000000000000000     
  0.90820104999999995        9.1566729999999999E-002   0.0000000000000000     
   9.1807449999999999E-002  0.90843574000000005        0.0000000000000000     
  0.27098960000000000       0.20527094000000001        0.0000000000000000     
  0.73457293999999995       0.79835387000000002        0.0000000000000000     
  0.79817773000000003       0.25713470999999999        0.0000000000000000     
  0.20747797000000001       0.72863946000000002        0.0000000000000000     
  0.20175195000000001       0.27583914999999998        0.0000000000000000     
  0.79603889000000005       0.72159035000000005        0.0000000000000000     
  0.71761666000000002       0.19748431999999999        0.0000000000000000     
  0.28462607000000001       0.80251899999999998        0.0000000000000000     
  0.69134598999999997       0.49261972999999998        0.0000000000000000     
  0.44720578999999999       0.58582935999999997        0.0000000000000000     
  0.24242269999999999       0.37228174000000003        0.0000000000000000     
  0.38265623999999998       0.93072131999999996        0.0000000000000000     
  0.60971754000000000       0.91988369000000003        0.0000000000000000     
   7.9163609999999995E-002  0.60979116000000000        0.0000000000000000     
  0.92010649000000000       0.61081183999999999        0.0000000000000000     
  0.61954008999999999        7.1530830000000004E-002   0.0000000000000000     
  0.91882012999999996       0.38917363999999999        0.0000000000000000     
  0.39086346000000000        8.0652249999999995E-002   0.0000000000000000     
   7.9183480000000001E-002  0.38966213000000000        0.0000000000000000     
  0.59114111999999996       0.49294315000000000        0.0000000000000000     
  0.63337980999999999       0.64485914000000000        0.0000000000000000     
  0.50012352000000004       0.29676539000000002        0.0000000000000000     
  0.82552601000000003       0.92753492000000004        0.0000000000000000     
  0.92774772999999999       0.82498556999999995        0.0000000000000000     
   7.1970870000000006E-002  0.17510291000000000        0.0000000000000000     
  0.17422821999999999        7.2635640000000001E-002   0.0000000000000000     
  0.82510813000000005        7.2134840000000006E-002   0.0000000000000000     
  0.92754665000000003       0.17446275999999999        0.0000000000000000     
  0.17501022999999999       0.92789951999999998        0.0000000000000000     
   7.2464680000000004E-002  0.82554053000000005        0.0000000000000000     
  0.30731587999999999       0.50885354999999999        0.0000000000000000     
  0.59033407999999998       0.22171178999999999        0.0000000000000000     
  0.40109191999999999       0.78725542000000004        0.0000000000000000     
  0.35420917000000002       0.63754104000000000        0.0000000000000000     
  0.15983976999999999       0.56665573000000002        0.0000000000000000     
  0.84108459999999996       0.56757886999999996        0.0000000000000000     
  0.83902096000000004       0.43344338999999998        0.0000000000000000     
  0.43230028999999998       0.16004268999999999        0.0000000000000000     
  0.57536027999999995       0.83041363999999995        0.0000000000000000     
  0.15771898000000001       0.42747892999999998        0.0000000000000000     
  0.34021692999999997       0.34221559000000001        0.0000000000000000     
  0.56002271999999997       0.57501117999999996        0.0000000000000000     
  0.65344329000000001       0.78147597999999996        0.0000000000000000     
   0.0000000000000000        0.0000000000000000        0.0000000000000000     
   1.0000000000000000        0.0000000000000000        0.0000000000000000     
   1.0000000000000000        1.0000000000000000        0.0000000000000000     
   0.0000000000000000        1.0000000000000000        0.0000000000000000     
  0.11111111000000000        0.0000000000000000        0.0000000000000000     
  0.22222222000000000        0.0000000000000000        0.0000000000000000     
  0.33333332999999998        0.0000000000000000        0.0000000000000000     
  0.44444444000000000        0.0000000000000000        0.0000000000000000     
  0.55555555999999995        0.0000000000000000        0.0000000000000000     
  0.66666667000000002        0.0000000000000000        0.0000000000000000     
  0.77777777999999997        0.0000000000000000        0.0000000000000000     
  0.88888889000000004        0.0000000000000000        0.0000000000000000     
   1.0000000000000000       0.11111111000000000        0.0000000000000000     
   1.0000000000000000       0.22222222000000000        0.0000000000000000     
   1.0000000000000000       0.33333332999999998        0.0000000000000000     
   1.0000000000000000       0.44444444000000000        0.0000000000000000     
   1.0000000000000000       0.55555555999999995        0.0000000000000000     
   1.0000000000000000       0.66666667000000002        0.0000000000000000     
   1.0000000000000000       0.77777777999999997        0.0000000000000000     
   1.0000000000000000       0.88888889000000004        0.0000000000000000     
  0.88888889000000004        1.0000000000000000        0.0000000000000000     
  0.77777777999999997        1.0000000000000000        0.0000000000000000     
  0.66666667000000002        1.0000000000000000        0.0000000000000000     
  0.55555555999999995        1.0000000000000000        0.0000000000000000     
  0.44444444000000000        1.0000000000000000        0.0000000000000000     
  0.33333332999999998        1.0000000000000000        0.0000000000000000     
  0.22222222000000000        1.0000000000000000        0.0000000000000000     
  0.11111111000000000        1.0000000000000000        0.0000000000000000     
   0.0000000000000000       0.11111111000000000        0.0000000000000000     
   0.0000000000000000       0.22222222000000000        0.0000000000000000     
[...]
 CELL_DATA         354
 SCALARS C float
 LOOKUP_TABLE default
    0.74254680841782516598E+00
    0.11471786481003463098E+01
    0.51938101703014816213E+00
    0.59888745355539385606E+00
    0.85994854550979293872E+00
    0.97491771815210226393E+00
    0.12363003738120548203E+01
    0.11079461847292333410E+01
    0.13430286406620846051E+01
    0.14129542598464870373E+01
    0.14770993376059047275E+01
    0.14632988177343100311E+01
    0.14867820912937095290E+01
    0.14906619721187237548E+01
    0.14830751567699484994E+01
    0.14874979698592867283E+01
    0.14545740020401958237E+01
    0.14091304818213703509E+01
    0.12603989815440419520E+01
    0.13339697498262350628E+01
    0.12175774321106844766E+01
    0.12548942002931695594E+01
    0.13382544941278611272E+01
    0.12992912982819990741E+01
    0.13475901372188014982E+01
    0.13274788839680404795E+01
    0.12580453766080923472E+01
    0.12961826567237373364E+01
    0.11854178543819138270E+01
    0.10803477530641434345E+01
    0.85783289656149852576E+00
    0.97263337999627985653E+00
    0.74680858414565254311E+00
    0.63488802298871305219E+00
    0.52208536615116984958E+00
    0.56618884640050848311E+00
    0.51320402390086339306E+00
    0.52079866623232295986E+00
    0.56547809026163931012E+00
    0.53172485851622641739E+00
    0.58016541239207675140E+00
    0.58337198944741230910E+00
    0.60214274224879904551E+00
    0.58861737403175895533E+00
    0.59076441943722046712E+00
    0.54845268475090580562E+00
    0.52188075468933381451E+00
    0.53278883558853806779E+00
    0.51709234175335727635E+00
    0.50780982120746565034E+00
    0.54727908082896647990E+00
    0.52842598591180311995E+00
    0.78358069954551701208E+00
    0.80694343150952074772E+00
    0.88960273905961828600E+00
    0.84137543003805681519E+00
    0.89810469088732802767E+00
    0.86857337921116173352E+00
    0.81617603774542490935E+00
    0.84277606212715028278E+00
    0.76642058757552056214E+00
    0.68653583103603166293E+00
    0.57231607362344938394E+00
    0.62939215027139927550E+00
    0.53717273345512395188E+00
    0.50592833694127192778E+00
    0.53690433518170355143E+00
    0.51793819027986032211E+00
    0.14362510198599156563E+01
    0.14890559625003330080E+01
    0.14863114621427737649E+01
    0.14736270221391407631E+01
    0.14936502447575439323E+01
    0.14870713384107001609E+01
    0.14674428555314924516E+01
    0.14246510559114802241E+01
    0.14525607085721841116E+01
    0.14914730156948343698E+01
    0.12189036207907089082E+01
    0.13100770415452906992E+01
    0.10741648483877512810E+01
    0.11585657783313898506E+01
    0.13179562992543205624E+01
    0.11212448884042292008E+01
    0.14457383898751476892E+01
    0.13226764117298279722E+01
    0.11985740822331369948E+01
    0.14153619420465390899E+01
    0.14367535163031868173E+01
    0.13842771279373891069E+01
    0.12650968340511616894E+01
    0.11265556053077772081E+01
    0.10888881653400319660E+01
    0.91830224484378730754E+00
    0.88525616434959508716E+00
    0.98649891006051870779E+00
    0.11634656163983470023E+01
    0.14235941542028154316E+01
    0.14889469838563880177E+01
    0.14543376375613674689E+01
    0.14908715052536782864E+01
    0.14215226980984370098E+01
    0.14804708481775670226E+01
    0.14111860327287102379E+01
    0.14052166493600972696E+01
    0.12981107527128592505E+01
    0.12987430804298694120E+01
    0.14289470056733541981E+01
    0.12290163995499658878E+01
    0.11539211875857615652E+01
    0.89095231586045553485E+00
    0.11437182539116763635E+01
    0.99890947379015082586E+00
    0.98209622547510966317E+00
    0.13961165958357131256E+01
    0.11026151231510916695E+01
    0.12239128250609556670E+01
    0.13501778354189843956E+01
    0.13500625272226134399E+01
    0.11284118444951680704E+01
    0.12222116478236495496E+01
    0.70352658805457313207E+00
    0.81975333349244405845E+00
    0.62317859320421398195E+00
    0.84060977283614368716E+00
    0.91073847576800981418E+00
    0.63401500068243732411E+00
    0.68778563032647177522E+00
    0.11354461160136264386E+01
    0.12897877819276215572E+01
    0.10503257837139172715E+01
    0.13398433878277340447E+01
    0.12784533278509182530E+01
    0.10544484668232181335E+01
    0.11571994938667051755E+01
    0.14704401719201540821E+01
    0.14932126138753429867E+01
    0.14137881145413953021E+01
    0.14922005692503725882E+01
    0.14796276128264052030E+01
    0.14598972091780382243E+01
    0.14292406485708144537E+01
    0.58643279232581801974E+00
    0.56163567483577070405E+00
    0.51886489735485119557E+00
    0.67090286877913041241E+00
    0.65259187164991183661E+00
    0.52216760842957488098E+00
    0.52820445639461999221E+00
    0.14797764129114843179E+01
    0.14418989499787748798E+01
    0.13889593366794164009E+01
    0.14697463488746493887E+01
    0.13489315513921957823E+01
    0.14766967083423487850E+01
    0.14631115458681220876E+01
    0.14935455302593478866E+01
    0.14894044476115977371E+01
    0.14587359133323563043E+01
    0.14919092486748015691E+01
    0.13051458127201818193E+01
    0.14620229147079903953E+01
    0.14350697797293956448E+01
    0.14089977553043855352E+01
    0.13457243208049660677E+01
    0.75251731708072411298E+00
    0.87745024346426370165E+00
    0.75038646430579369895E+00
    0.86617314772114528676E+00
    0.93618933702842876965E+00
    0.14441149991020689747E+01
    0.14881911088079273764E+01
    0.14740780262226644837E+01
    0.14868954414645481066E+01
    0.14910816462907960922E+01
    0.11422453558498957271E+01
    0.12771165827350265953E+01
    0.13110998467157455316E+01
    0.11002664023107775471E+01
    0.12007573075094244430E+01
    0.14839144068569518620E+01
    0.14788658654963731109E+01
    0.14907162457021279067E+01
    0.14630409638783477000E+01
    0.14903386900472546106E+01
    0.10564605222250169625E+01
    0.12997021816848435272E+01
    0.11491535771297245461E+01
    0.11592021388039577268E+01
    0.12826715999681470581E+01
    0.14432034941806808348E+01
    0.14718454642455802706E+01
    0.14274954074402321780E+01
    0.14712928133121949692E+01
    0.13577805842728194463E+01
    0.73024034091920864142E+00
    0.99309412640496286251E+00
    0.83222603080091284156E+00
    0.79432506602245711580E+00
    0.93471579476615784809E+00
    0.71681924297884846986E+00
    0.63303472326554854899E+00
    0.73180491263956781722E+00
    0.63978167080232772879E+00
    0.81044237062312896036E+00
    0.12141075268121850339E+01
    0.14090043112084305044E+01
    0.13227704818048495738E+01
    0.14304580899331018617E+01
    0.14066672686731707120E+01
    0.13038729086222595743E+01
    0.12911462859038107531E+01
    0.14174015406011695184E+01
    0.13931802083954780702E+01
    0.14434423643242153545E+01
    0.14920053940925768199E+01
    0.14498183077245874184E+01
    0.14503871600861200086E+01
    0.14919795674474423119E+01
    0.12046158530195580916E+01
    0.11437290956057228897E+01
    0.11373888914877272605E+01
    0.13493756933823908284E+01
    0.10809503220173337645E+01
    0.12571161875174790001E+01
    0.63187253553062383560E+00
    0.68327927152590850479E+00
    0.83395984298655201350E+00
    0.81343030978057018210E+00
    0.82843842639130627070E+00
    0.95224857675640528498E+00
    0.97629562743987752249E+00
    0.10698897632776886990E+01
    0.12322461912307118848E+01
    0.13736789885886147022E+01
    0.13494665150224147698E+01
    0.14266106346343927491E+01
    0.14859667843253410169E+01
    0.14887250292267988350E+01
    0.13682561160995754257E+01
    0.14742109652321018221E+01
    0.13127099263490535908E+01
    0.10593749579622340207E+01
    0.11170966421442125593E+01
    0.14776242389486904383E+01
    0.14892085382845390296E+01
    0.79137724716294211014E+00
    0.65730698731407311008E+00
    0.60373478432622984524E+00
    0.12069527170598615129E+01
    0.10113697805939103613E+01
    0.98994011481176080736E+00
    0.14047006725487103385E+01
    0.14306940624398600814E+01
    0.12277019277246896678E+01
    0.14832982093758486641E+01
    0.14258726530300376290E+01
    0.14061178446080777604E+01
    0.98342324139959991225E+00
    0.10082913155099517688E+01
    0.74465719408635255849E+00
    0.14761226363398591843E+01
    0.14954376826622437502E+01
    0.14696717438230950670E+01
    0.69440726773512917447E+00
    0.66939685778927360271E+00
    0.54161756339945255068E+00
    0.64359295271817607009E+00
    0.56700783116052455579E+00
    0.52008416867701734443E+00
    0.14780844113848972121E+01
    0.13642398296378510647E+01
    0.14681874230123708180E+01
    0.14844803958706171976E+01
    0.12494138241867172034E+01
    0.14711302051509607125E+01
    0.14079873447806954267E+01
    0.13840526009486087133E+01
    0.97455054170774491062E+00
    0.13075018049279854004E+01
    0.12273666748766141055E+01
    0.10865534836396713025E+01
    0.14392193703173508101E+01
    0.14079472659980623028E+01
    0.12737920480778299748E+01
    0.14834146146056721438E+01
    0.14660344093198309778E+01
    0.92054481303649682289E+00
    0.10097677533615330159E+01
    0.55045110883336678675E+00
    0.58541214011066677880E+00
    0.13800167555331512848E+01
    0.13452763489817032294E+01
    0.50678761672709904396E+00
    0.50646207648752128438E+00
    0.13959182244416878937E+01
    0.10038205321071298481E+01
    0.99485862270473590652E+00
    0.14645969800218880952E+01
    0.77312017724219139758E+00
    0.13809560847379955817E+01
    0.13403000924882140232E+01
    0.85076882055806501981E+00
    0.14747344048809309935E+01
    0.13685022037046365995E+01
    0.14772403004330982856E+01
    0.12950424363434220876E+01
    0.14701366176762813431E+01
    0.77768519483431841621E+00
    0.87462000958960661734E+00
    0.12503232978161016309E+01
    0.14478914582907040920E+01
    0.14896052637068875057E+01
    0.10789231119464330888E+01
    0.14889569063058603060E+01
    0.14555052471362794897E+01
    0.12016298060505457013E+01
    0.98309115177377959238E+00
    0.72144996449412324147E+00
    0.65552392893637745352E+00
    0.11036245416872560998E+01
    0.10631168947396836266E+01
    0.51882169402831257443E+00
    0.51700560054494659745E+00
    0.63764193674687019708E+00
    0.62588635722598162658E+00
    0.97748196327263281447E+00
    0.12293191746420131238E+01
    0.13941524943806526959E+01
    0.14661869448914173208E+01
    0.14743352103255120689E+01
    0.14361371829191338367E+01
    0.13138241329955571146E+01
    0.11913142986291029857E+01
    0.12526838051659141549E+01
    0.12251080208211226896E+01
    0.11231515825863427338E+01
    0.94244407882669234411E+00
    0.73560795161079250981E+00
    0.56725659168257125398E+00
    0.50484270904772310384E+00
    0.52017679725414356362E+00
    0.53038638483912114996E+00
    0.52964430528660666475E+00
    0.51049960009062611554E+00
    0.50570288879188174391E+00
    0.53971014543525264173E+00
    0.73090787167493032062E+00
    0.77601563729102607248E+00
    0.75418843872911023318E+00
    0.69005452405160117024E+00
    0.59404349407747003564E+00
    0.52277787116029483805E+00
    0.52213386607253653438E+00
