# vtk DataFile Version 3.0
LAPLACIEN  2D
ASCII
DATASET UNSTRUCTURED_GRID
 POINTS         391  float
  0.50371505999999999       0.50367786999999997        0.0000000000000000     
  0.29013556000000001       0.29014535000000002        0.0000000000000000     
  0.70165584999999997       0.71206597999999999        0.0000000000000000     
  0.70304188999999995       0.30176619999999998        0.0000000000000000     
  0.30920671999999999       0.71149227999999998        0.0000000000000000     
  0.79044983999999996       0.49884783999999999        0.0000000000000000     
  0.49102621000000002       0.20968644000000000        0.0000000000000000     
  0.49912957000000002       0.77208717000000004        0.0000000000000000     
  0.21724072999999999       0.48989389000000000        0.0000000000000000     
  0.83255933999999998       0.83046598000000005        0.0000000000000000     
  0.16646774000000000       0.17015694000000001        0.0000000000000000     
  0.83054514999999995       0.16736480000000001        0.0000000000000000     
  0.16953130999999999       0.83265739000000005        0.0000000000000000     
  0.42166445000000002       0.36345201999999999        0.0000000000000000     
  0.64462200999999997       0.56347807999999999        0.0000000000000000     
  0.35324633999999999       0.56311191000000005        0.0000000000000000     
  0.65456411000000003       0.84856860999999995        0.0000000000000000     
  0.35141477999999998       0.15563974000000000        0.0000000000000000     
  0.15290967000000000       0.35206625000000003        0.0000000000000000     
  0.82942241000000005       0.34936866000000000        0.0000000000000000     
  0.84390527000000004       0.64441694999999999        0.0000000000000000     
  0.63699174999999997       0.14284276000000001        0.0000000000000000     
  0.15620682999999999       0.64648446999999998        0.0000000000000000     
  0.36426062999999997       0.85756310999999996        0.0000000000000000     
  0.63489340999999999       0.40519052000000000        0.0000000000000000     
  0.52518872999999999       0.65957078000000002        0.0000000000000000     
  0.32158959999999998       0.42298103999999997        0.0000000000000000     
  0.58861710000000000       0.31711036999999997        0.0000000000000000     
  0.42078418000000001       0.69497151999999995        0.0000000000000000     
  0.48608786999999998       0.89334152000000000        0.0000000000000000     
   9.7084320000000002E-002  0.50000000000000000        0.0000000000000000     
  0.90291568000000000       0.50000000000000000        0.0000000000000000     
  0.51392453000000005       0.10668648999999999        0.0000000000000000     
  0.59792566999999996       0.73122754000000001        0.0000000000000000     
  0.74510058999999995       0.41124730999999998        0.0000000000000000     
  0.73212551999999997       0.90191560000000004        0.0000000000000000     
   9.7784830000000003E-002  0.26957329000000002        0.0000000000000000     
  0.26711221000000002        9.8671499999999995E-002   0.0000000000000000     
  0.90191560000000004       0.26787448000000003        0.0000000000000000     
  0.90118569000000004       0.73039821000000005        0.0000000000000000     
  0.73122947000000005        9.8017859999999998E-002   0.0000000000000000     
   9.8084400000000002E-002  0.73212551999999997        0.0000000000000000     
  0.26957329000000002       0.90221516999999996        0.0000000000000000     
  0.39283522999999998       0.25360379000000000        0.0000000000000000     
  0.74480864000000002       0.60495284999999999        0.0000000000000000     
  0.25505132000000003       0.60593640999999998        0.0000000000000000     
  0.52159297999999998       0.40671636000000000        0.0000000000000000     
  0.40768852000000000       0.47699891000000000        0.0000000000000000     
   9.1467049999999994E-002   9.1876959999999994E-002   0.0000000000000000     
  0.90842484999999995       0.90819225000000003        0.0000000000000000     
  0.90820104999999995        9.1566729999999999E-002   0.0000000000000000     
   9.1807449999999999E-002  0.90843574000000005        0.0000000000000000     
  0.27098960000000000       0.20527094000000001        0.0000000000000000     
  0.73457293999999995       0.79835387000000002        0.0000000000000000     
  0.79817773000000003       0.25713470999999999        0.0000000000000000     
  0.20747797000000001       0.72863946000000002        0.0000000000000000     
  0.20175195000000001       0.27583914999999998        0.0000000000000000     
  0.79603889000000005       0.72159035000000005        0.0000000000000000     
  0.71761666000000002       0.19748431999999999        0.0000000000000000     
  0.28462607000000001       0.80251899999999998        0.0000000000000000     
  0.69134598999999997       0.49261972999999998        0.0000000000000000     
  0.44720578999999999       0.58582935999999997        0.0000000000000000     
  0.24242269999999999       0.37228174000000003        0.0000000000000000     
  0.38265623999999998       0.93072131999999996        0.0000000000000000     
  0.60971754000000000       0.91988369000000003        0.0000000000000000     
   7.9163609999999995E-002  0.60979116000000000        0.0000000000000000     
  0.92010649000000000       0.61081183999999999        0.0000000000000000     
  0.61954008999999999        7.1530830000000004E-002   0.0000000000000000     
  0.91882012999999996       0.38917363999999999        0.0000000000000000     
  0.39086346000000000        8.0652249999999995E-002   0.0000000000000000     
   7.9183480000000001E-002  0.38966213000000000        0.0000000000000000     
  0.59114111999999996       0.49294315000000000        0.0000000000000000     
  0.63337980999999999       0.64485914000000000        0.0000000000000000     
  0.50012352000000004       0.29676539000000002        0.0000000000000000     
  0.82552601000000003       0.92753492000000004        0.0000000000000000     
  0.92774772999999999       0.82498556999999995        0.0000000000000000     
   7.1970870000000006E-002  0.17510291000000000        0.0000000000000000     
  0.17422821999999999        7.2635640000000001E-002   0.0000000000000000     
  0.82510813000000005        7.2134840000000006E-002   0.0000000000000000     
  0.92754665000000003       0.17446275999999999        0.0000000000000000     
  0.17501022999999999       0.92789951999999998        0.0000000000000000     
   7.2464680000000004E-002  0.82554053000000005        0.0000000000000000     
  0.30731587999999999       0.50885354999999999        0.0000000000000000     
  0.59033407999999998       0.22171178999999999        0.0000000000000000     
  0.40109191999999999       0.78725542000000004        0.0000000000000000     
  0.35420917000000002       0.63754104000000000        0.0000000000000000     
  0.15983976999999999       0.56665573000000002        0.0000000000000000     
  0.84108459999999996       0.56757886999999996        0.0000000000000000     
  0.83902096000000004       0.43344338999999998        0.0000000000000000     
  0.43230028999999998       0.16004268999999999        0.0000000000000000     
  0.57536027999999995       0.83041363999999995        0.0000000000000000     
  0.15771898000000001       0.42747892999999998        0.0000000000000000     
  0.34021692999999997       0.34221559000000001        0.0000000000000000     
  0.56002271999999997       0.57501117999999996        0.0000000000000000     
  0.65344329000000001       0.78147597999999996        0.0000000000000000     
   0.0000000000000000        0.0000000000000000        0.0000000000000000     
   1.0000000000000000        0.0000000000000000        0.0000000000000000     
   1.0000000000000000        1.0000000000000000        0.0000000000000000     
   0.0000000000000000        1.0000000000000000        0.0000000000000000     
  0.11111111000000000        0.0000000000000000        0.0000000000000000     
  0.22222222000000000        0.0000000000000000        0.0000000000000000     
  0.33333332999999998        0.0000000000000000        0.0000000000000000     
  0.44444444000000000        0.0000000000000000        0.0000000000000000     
  0.55555555999999995        0.0000000000000000        0.0000000000000000     
  0.66666667000000002        0.0000000000000000        0.0000000000000000     
  0.77777777999999997        0.0000000000000000        0.0000000000000000     
  0.88888889000000004        0.0000000000000000        0.0000000000000000     
   1.0000000000000000       0.11111111000000000        0.0000000000000000     
   1.0000000000000000       0.22222222000000000        0.0000000000000000     
   1.0000000000000000       0.33333332999999998        0.0000000000000000     
   1.0000000000000000       0.44444444000000000        0.0000000000000000     
   1.0000000000000000       0.55555555999999995        0.0000000000000000     
   1.0000000000000000       0.66666667000000002        0.0000000000000000     
   1.0000000000000000       0.77777777999999997        0.0000000000000000     
   1.0000000000000000       0.88888889000000004        0.0000000000000000     
  0.88888889000000004        1.0000000000000000        0.0000000000000000     
  0.77777777999999997        1.0000000000000000        0.0000000000000000     
  0.66666667000000002        1.0000000000000000        0.0000000000000000     
  0.55555555999999995        1.0000000000000000        0.0000000000000000     
  0.44444444000000000        1.0000000000000000        0.0000000000000000     
  0.33333332999999998        1.0000000000000000        0.0000000000000000     
  0.22222222000000000        1.0000000000000000        0.0000000000000000     
  0.11111111000000000        1.0000000000000000        0.0000000000000000     
   0.0000000000000000       0.11111111000000000        0.0000000000000000     
   0.0000000000000000       0.22222222000000000        0.0000000000000000     
[...]
 CELL_DATA         354
 SCALARS C float
 LOOKUP_TABLE default
    0.81925037617615548147E+00
    0.11215886257647504909E+01
    0.61020780722522161010E+00
    0.66488267675486900643E+00
    0.92230423073460532368E+00
    0.10189028085195870332E+01
    0.11276665495983855259E+01
    0.10870450167858305424E+01
    0.11692015374966202579E+01
    0.11724680639282094585E+01
    0.11559031852105499105E+01
    0.11727197430504858744E+01
    0.11559574615839738332E+01
    0.11550627159377502284E+01
    0.11609986443630384567E+01
    0.11544499039767455173E+01
    0.11567028504072467410E+01
    0.11691174726215385338E+01
    0.11668550183078938431E+01
    0.11592650831826998292E+01
    0.11576369091269054223E+01
    0.11555474861434125167E+01
    0.11748757483441092386E+01
    0.11668411125501847447E+01
    0.11751914926667348382E+01
    0.11705044751817879067E+01
    0.11721371077842994701E+01
    0.11696772771175967254E+01
    0.11445556554797189364E+01
    0.10894665896785902248E+01
    0.92081804596652139239E+00
    0.10192040590747304396E+01
    0.82296649769719398826E+00
    0.72387108457792403993E+00
    0.61825886041511080027E+00
    0.66011753572795994760E+00
    0.60787273550927489740E+00
    0.61629678208311833298E+00
    0.65964064083095619306E+00
    0.62826080455247435008E+00
    0.67362651399999762258E+00
    0.67661978259741417663E+00
    0.69372029062068707450E+00
    0.68163554059406594732E+00
    0.68312174127452007788E+00
    0.64478847938024708153E+00
    0.61824122819153237707E+00
    0.62913361719915061876E+00
    0.61114920585836440825E+00
    0.59888507610745933540E+00
    0.62539309716875135514E+00
    0.61258469773201940090E+00
    0.85609921208723804842E+00
    0.87717988466068264053E+00
    0.94926130447056733530E+00
    0.90780061148047885844E+00
    0.95645472438828438300E+00
    0.93089612022910128708E+00
    0.88484676998869526976E+00
    0.90820896995836208898E+00
    0.84050563059034477664E+00
    0.77029255156360476597E+00
    0.66676629502655004877E+00
    0.71837278010529637129E+00
    0.63251380302461146510E+00
    0.60101759776443619554E+00
    0.61838874278947697505E+00
    0.60641944704175299030E+00
    0.11448688944207772167E+01
    0.11691741133090307603E+01
    0.11724418839283863303E+01
    0.11599265842153880790E+01
    0.11699188703001339729E+01
    0.11634924791212761797E+01
    0.11853033785958775326E+01
    0.11882733848994022630E+01
    0.11937432009331254701E+01
    0.11791276132292747292E+01
    0.11476094325067460744E+01
    0.11728363077187435870E+01
    0.10933450298784392896E+01
    0.11181615377963107782E+01
    0.11787132898209451426E+01
    0.11129225331478733718E+01
    0.11526133251035903804E+01
    0.11242650437325829582E+01
    0.10601696246799390266E+01
    0.11466633646512622846E+01
    0.11479899675063811593E+01
    0.11377493601785202415E+01
    0.11004049713853814030E+01
    0.11163341480120780869E+01
    0.10873000211627039668E+01
    0.96814052813128514963E+00
    0.94116586072839458765E+00
    0.10259236866355470053E+01
    0.11242878046875182108E+01
    0.11914987332962692079E+01
    0.11655158685357716042E+01
    0.11871823061365534002E+01
    0.11759451630154176272E+01
    0.11917215508857239570E+01
    0.11909434996546335306E+01
    0.11393749034267024456E+01
    0.11367793297331634239E+01
    0.11019315054409151156E+01
    0.11013571935815777980E+01
    0.11372212799883545387E+01
    0.11373766467968335903E+01
    0.11188967907483884368E+01
    0.94576113501994685251E+00
    0.11133342885809835998E+01
    0.10323221056355966763E+01
    0.10189262323614385330E+01
    0.11833851485886499599E+01
    0.11081422721924167885E+01
    0.11537470207961169066E+01
    0.11781227465237806840E+01
    0.11886728558404255907E+01
    0.11218581834421732513E+01
    0.11504095697049754321E+01
    0.78422785677945272553E+00
    0.88569785262352740407E+00
    0.71193249971153815814E+00
    0.90296185665413075672E+00
    0.96300079787713888102E+00
    0.72188043483258557131E+00
    0.77018589606517229296E+00
    0.11201693150651486075E+01
    0.11636837563560726849E+01
    0.10777018655583856521E+01
    0.11825535804712448140E+01
    0.11724731472193854476E+01
    0.10845039216373479896E+01
    0.11218772599423108005E+01
    0.11906971710829816757E+01
    0.11742000450486191898E+01
    0.11825120753903832771E+01
    0.11757817867949440505E+01
    0.11603200278232144171E+01
    0.11828142160088748192E+01
    0.11883406298289762582E+01
    0.67945146452547144911E+00
    0.65677889099415176499E+00
    0.61378982079959509832E+00
    0.75463427300098406825E+00
    0.73872654151774541642E+00
    0.61844603301681699836E+00
    0.62469846807500861718E+00
    0.11615397484259948335E+01
    0.11500625305914637941E+01
    0.11355312871222276172E+01
    0.11587935618041815822E+01
    0.11167290418190174428E+01
    0.11574728209533560186E+01
    0.11899646596039521462E+01
    0.11766840950922732301E+01
    0.11618719506878845138E+01
    0.11909925475481308865E+01
    0.11804112429248099225E+01
    0.11701663530553181314E+01
    0.11746410471138433174E+01
    0.11834407395576505007E+01
    0.11908509503428383880E+01
    0.11823724856653787807E+01
    0.82655883405676655595E+00
    0.93363654474200830080E+00
    0.82478252867336709908E+00
    0.92429290138803799071E+00
    0.98401227794266865612E+00
    0.11843322899636012924E+01
    0.11627357339822188553E+01
    0.11838560406996456731E+01
    0.11871801779936455024E+01
    0.11652144229600134295E+01
    0.11237057617502772544E+01
    0.11668881121315581861E+01
    0.11724199268210009350E+01
    0.11088855661739640546E+01
    0.11397574664982270676E+01
    0.11687947093742780957E+01
    0.11924197489967702790E+01
    0.11769188090385540590E+01
    0.11917658811712414924E+01
    0.11866089001105386558E+01
    0.10812616408616115837E+01
    0.11708745858830758024E+01
    0.11139296506858384905E+01
    0.11313647599894371965E+01
    0.11662021254696437467E+01
    0.11460984343311209077E+01
    0.11504437814059664813E+01
    0.11445219288714434391E+01
    0.11453361215153960995E+01
    0.11127069948740602179E+01
    0.80693515939451121444E+00
    0.10319934528808707430E+01
    0.89589522121121267784E+00
    0.86292672515891233331E+00
    0.98308743958552702313E+00
    0.79635467929875169979E+00
    0.72149955616685579329E+00
    0.80933378604997885386E+00
    0.72804367181972184930E+00
    0.87808000341436764913E+00
    0.10614430929767524336E+01
    0.11440228898587272433E+01
    0.11217653943046672627E+01
    0.11461604581791979829E+01
    0.11410132103561534400E+01
    0.11680306316697466329E+01
    0.11672046400272970690E+01
    0.11900318655365194065E+01
    0.11913529388131021136E+01
    0.11864065262943563894E+01
    0.11782090510209246581E+01
    0.11946320859945509518E+01
    0.11918713683869965880E+01
    0.11810390989918322369E+01
    0.10598393551720688421E+01
    0.10361062670878975478E+01
    0.10343272070499414106E+01
    0.11763274997712445114E+01
    0.10986665019524262110E+01
    0.11596583392830854820E+01
    0.72082865623267144972E+00
    0.76661973847687647776E+00
    0.89818744865100375030E+00
    0.87964795912947657541E+00
    0.89379524759322936944E+00
    0.10004330681985229567E+01
    0.10178358789922510308E+01
    0.10834329466816641219E+01
    0.11661011707972264162E+01
    0.12005736647831655173E+01
    0.11945365966538086244E+01
    0.11961584710317221258E+01
    0.11524670239546550565E+01
    0.11579967891556242066E+01
    0.11179872318911991957E+01
    0.11537160184818451292E+01
    0.11778026580141058854E+01
    0.10837107034428654639E+01
    0.11104993232982152129E+01
    0.11640016996625879298E+01
    0.11685609313012512711E+01
    0.85999711930704458851E+00
    0.74346469859116937062E+00
    0.69502808575370922384E+00
    0.11413574505595951436E+01
    0.10496498855451739107E+01
    0.10312680873011117466E+01
    0.11948744544964691183E+01
    0.11839143881756781784E+01
    0.11342388741651805439E+01
    0.11800814344375067932E+01
    0.11957292622776878321E+01
    0.11900871736726812422E+01
    0.10219004979536432387E+01
    0.10456594304541648732E+01
    0.82028001407186779126E+00
    0.11566861660816443180E+01
    0.11549338672982136789E+01
    0.11671956000033874012E+01
    0.77551305165751915904E+00
    0.75381847731269957524E+00
    0.63724163821506762950E+00
    0.73053257617899070020E+00
    0.66184741981153938362E+00
    0.61633595444597644164E+00
    0.11616079382723656366E+01
    0.11188726865553182410E+01
    0.11545275489721233964E+01
    0.11616220225274351829E+01
    0.11434851876313703034E+01
    0.11762032616287143583E+01
    0.11980568668120628040E+01
    0.11898100244924691982E+01
    0.10156891393362676990E+01
    0.11736748806045416149E+01
    0.11531117425482269034E+01
    0.10885054748480555986E+01
    0.11454725102393925606E+01
    0.11424067679014573429E+01
    0.11020837986417193477E+01
    0.11768865810819184592E+01
    0.11775521403951805244E+01
    0.97470312791410984588E+00
    0.10438065817578767724E+01
    0.64588434084287826842E+00
    0.67807914709539918174E+00
    0.11809248296999272920E+01
    0.11856692593417217374E+01
    0.59914472108359684288E+00
    0.60005691960543394714E+00
    0.11967473131052581703E+01
    0.10358139828784411751E+01
    0.10324805188433729963E+01
    0.11574963891456298004E+01
    0.84489957336963539269E+00
    0.11901929930192551854E+01
    0.11173155495151105843E+01
    0.91284912978975008002E+00
    0.11614933474617628040E+01
    0.11810477858197443446E+01
    0.11850906764680524397E+01
    0.11628983744850445170E+01
    0.11833181475674634520E+01
    0.84839492697634377727E+00
    0.93261836139242015875E+00
    0.11608079532031481129E+01
    0.12016777974642063320E+01
    0.11632098486996105269E+01
    0.10925566290343404763E+01
    0.11600001880342736271E+01
    0.11901167782023009956E+01
    0.10770814769565946190E+01
    0.10237830246112760157E+01
    0.80053331139874761568E+00
    0.74296693830041427020E+00
    0.11092492443640460387E+01
    0.10804166199403084647E+01
    0.60834232144421052091E+00
    0.60424263105873521340E+00
    0.69412426830104845266E+00
    0.68575425606031503722E+00
    0.10220555199097420829E+01
    0.11725378393365919472E+01
    0.12532084365630522527E+01
    0.12733272232120824707E+01
    0.12733780924155984060E+01
    0.12628074424369879480E+01
    0.12176676684161980013E+01
    0.11606088251153416913E+01
    0.11930653613376314137E+01
    0.11783687628253083357E+01
    0.11241105863840532564E+01
    0.99579305255964700727E+00
    0.81412558354065645005E+00
    0.66093251340910608160E+00
    0.59992672417807946239E+00
    0.61758398696136751482E+00
    0.62809873416782979749E+00
    0.62711847551643029597E+00
    0.60750975876915502827E+00
    0.59843990918259593048E+00
    0.61954214818948838417E+00
    0.81096634365529718380E+00
    0.85133959124211544545E+00
    0.83208970840526064183E+00
    0.77455978548094150948E+00
    0.68737734583131937516E+00
    0.61900270084456798791E+00
    0.60850647548884051474E+00
