# vtk DataFile Version 3.0
LAPLACIEN  2D
ASCII
DATASET UNSTRUCTURED_GRID
 POINTS         391  float
  0.50371505999999999       0.50367786999999997        0.0000000000000000     
  0.29013556000000001       0.29014535000000002        0.0000000000000000     
  0.70165584999999997       0.71206597999999999        0.0000000000000000     
  0.70304188999999995       0.30176619999999998        0.0000000000000000     
  0.30920671999999999       0.71149227999999998        0.0000000000000000     
  0.79044983999999996       0.49884783999999999        0.0000000000000000     
  0.49102621000000002       0.20968644000000000        0.0000000000000000     
  0.49912957000000002       0.77208717000000004        0.0000000000000000     
  0.21724072999999999       0.48989389000000000        0.0000000000000000     
  0.83255933999999998       0.83046598000000005        0.0000000000000000     
  0.16646774000000000       0.17015694000000001        0.0000000000000000     
  0.83054514999999995       0.16736480000000001        0.0000000000000000     
  0.16953130999999999       0.83265739000000005        0.0000000000000000     
  0.42166445000000002       0.36345201999999999        0.0000000000000000     
  0.64462200999999997       0.56347807999999999        0.0000000000000000     
  0.35324633999999999       0.56311191000000005        0.0000000000000000     
  0.65456411000000003       0.84856860999999995        0.0000000000000000     
  0.35141477999999998       0.15563974000000000        0.0000000000000000     
  0.15290967000000000       0.35206625000000003        0.0000000000000000     
  0.82942241000000005       0.34936866000000000        0.0000000000000000     
  0.84390527000000004       0.64441694999999999        0.0000000000000000     
  0.63699174999999997       0.14284276000000001        0.0000000000000000     
  0.15620682999999999       0.64648446999999998        0.0000000000000000     
  0.36426062999999997       0.85756310999999996        0.0000000000000000     
  0.63489340999999999       0.40519052000000000        0.0000000000000000     
  0.52518872999999999       0.65957078000000002        0.0000000000000000     
  0.32158959999999998       0.42298103999999997        0.0000000000000000     
  0.58861710000000000       0.31711036999999997        0.0000000000000000     
  0.42078418000000001       0.69497151999999995        0.0000000000000000     
  0.48608786999999998       0.89334152000000000        0.0000000000000000     
   9.7084320000000002E-002  0.50000000000000000        0.0000000000000000     
  0.90291568000000000       0.50000000000000000        0.0000000000000000     
  0.51392453000000005       0.10668648999999999        0.0000000000000000     
  0.59792566999999996       0.73122754000000001        0.0000000000000000     
  0.74510058999999995       0.41124730999999998        0.0000000000000000     
  0.73212551999999997       0.90191560000000004        0.0000000000000000     
   9.7784830000000003E-002  0.26957329000000002        0.0000000000000000     
  0.26711221000000002        9.8671499999999995E-002   0.0000000000000000     
  0.90191560000000004       0.26787448000000003        0.0000000000000000     
  0.90118569000000004       0.73039821000000005        0.0000000000000000     
  0.73122947000000005        9.8017859999999998E-002   0.0000000000000000     
   9.8084400000000002E-002  0.73212551999999997        0.0000000000000000     
  0.26957329000000002       0.90221516999999996        0.0000000000000000     
  0.39283522999999998       0.25360379000000000        0.0000000000000000     
  0.74480864000000002       0.60495284999999999        0.0000000000000000     
  0.25505132000000003       0.60593640999999998        0.0000000000000000     
  0.52159297999999998       0.40671636000000000        0.0000000000000000     
  0.40768852000000000       0.47699891000000000        0.0000000000000000     
   9.1467049999999994E-002   9.1876959999999994E-002   0.0000000000000000     
  0.90842484999999995       0.90819225000000003        0.0000000000000000     
  0.90820104999999995        9.1566729999999999E-002   0.0000000000000000     
   9.1807449999999999E-002  0.90843574000000005        0.0000000000000000     
  0.27098960000000000       0.20527094000000001        0.0000000000000000     
  0.73457293999999995       0.79835387000000002        0.0000000000000000     
  0.79817773000000003       0.25713470999999999        0.0000000000000000     
  0.20747797000000001       0.72863946000000002        0.0000000000000000     
  0.20175195000000001       0.27583914999999998        0.0000000000000000     
  0.79603889000000005       0.72159035000000005        0.0000000000000000     
  0.71761666000000002       0.19748431999999999        0.0000000000000000     
  0.28462607000000001       0.80251899999999998        0.0000000000000000     
  0.69134598999999997       0.49261972999999998        0.0000000000000000     
  0.44720578999999999       0.58582935999999997        0.0000000000000000     
  0.24242269999999999       0.37228174000000003        0.0000000000000000     
  0.38265623999999998       0.93072131999999996        0.0000000000000000     
  0.60971754000000000       0.91988369000000003        0.0000000000000000     
   7.9163609999999995E-002  0.60979116000000000        0.0000000000000000     
  0.92010649000000000       0.61081183999999999        0.0000000000000000     
  0.61954008999999999        7.1530830000000004E-002   0.0000000000000000     
  0.91882012999999996       0.38917363999999999        0.0000000000000000     
  0.39086346000000000        8.0652249999999995E-002   0.0000000000000000     
   7.9183480000000001E-002  0.38966213000000000        0.0000000000000000     
  0.59114111999999996       0.49294315000000000        0.0000000000000000     
  0.63337980999999999       0.64485914000000000        0.0000000000000000     
  0.50012352000000004       0.29676539000000002        0.0000000000000000     
  0.82552601000000003       0.92753492000000004        0.0000000000000000     
  0.92774772999999999       0.82498556999999995        0.0000000000000000     
   7.1970870000000006E-002  0.17510291000000000        0.0000000000000000     
  0.17422821999999999        7.2635640000000001E-002   0.0000000000000000     
  0.82510813000000005        7.2134840000000006E-002   0.0000000000000000     
  0.92754665000000003       0.17446275999999999        0.0000000000000000     
  0.17501022999999999       0.92789951999999998        0.0000000000000000     
   7.2464680000000004E-002  0.82554053000000005        0.0000000000000000     
  0.30731587999999999       0.50885354999999999        0.0000000000000000     
  0.59033407999999998       0.22171178999999999        0.0000000000000000     
  0.40109191999999999       0.78725542000000004        0.0000000000000000     
  0.35420917000000002       0.63754104000000000        0.0000000000000000     
  0.15983976999999999       0.56665573000000002        0.0000000000000000     
  0.84108459999999996       0.56757886999999996        0.0000000000000000     
  0.83902096000000004       0.43344338999999998        0.0000000000000000     
  0.43230028999999998       0.16004268999999999        0.0000000000000000     
  0.57536027999999995       0.83041363999999995        0.0000000000000000     
  0.15771898000000001       0.42747892999999998        0.0000000000000000     
  0.34021692999999997       0.34221559000000001        0.0000000000000000     
  0.56002271999999997       0.57501117999999996        0.0000000000000000     
  0.65344329000000001       0.78147597999999996        0.0000000000000000     
   0.0000000000000000        0.0000000000000000        0.0000000000000000     
   1.0000000000000000        0.0000000000000000        0.0000000000000000     
   1.0000000000000000        1.0000000000000000        0.0000000000000000     
   0.0000000000000000        1.0000000000000000        0.0000000000000000     
  0.11111111000000000        0.0000000000000000        0.0000000000000000     
  0.22222222000000000        0.0000000000000000        0.0000000000000000     
  0.33333332999999998        0.0000000000000000        0.0000000000000000     
  0.44444444000000000        0.0000000000000000        0.0000000000000000     
  0.55555555999999995        0.0000000000000000        0.0000000000000000     
  0.66666667000000002        0.0000000000000000        0.0000000000000000     
  0.77777777999999997        0.0000000000000000        0.0000000000000000     
  0.88888889000000004        0.0000000000000000        0.0000000000000000     
   1.0000000000000000       0.11111111000000000        0.0000000000000000     
   1.0000000000000000       0.22222222000000000        0.0000000000000000     
   1.0000000000000000       0.33333332999999998        0.0000000000000000     
   1.0000000000000000       0.44444444000000000        0.0000000000000000     
   1.0000000000000000       0.55555555999999995        0.0000000000000000     
   1.0000000000000000       0.66666667000000002        0.0000000000000000     
   1.0000000000000000       0.77777777999999997        0.0000000000000000     
   1.0000000000000000       0.88888889000000004        0.0000000000000000     
  0.88888889000000004        1.0000000000000000        0.0000000000000000     
  0.77777777999999997        1.0000000000000000        0.0000000000000000     
  0.66666667000000002        1.0000000000000000        0.0000000000000000     
  0.55555555999999995        1.0000000000000000        0.0000000000000000     
  0.44444444000000000        1.0000000000000000        0.0000000000000000     
  0.33333332999999998        1.0000000000000000        0.0000000000000000     
  0.22222222000000000        1.0000000000000000        0.0000000000000000     
  0.11111111000000000        1.0000000000000000        0.0000000000000000     
   0.0000000000000000       0.11111111000000000        0.0000000000000000     
   0.0000000000000000       0.22222222000000000        0.0000000000000000     
[...]
 CELL_DATA         354
 SCALARS C float
 LOOKUP_TABLE default
    0.74255442600335408443E+00
    0.11471858438112201295E+01
    0.51938261592366385955E+00
    0.59888424361954306629E+00
    0.85994950870642428153E+00
    0.97492004730682779723E+00
    0.12363044771970692626E+01
    0.11079498082814447368E+01
    0.13430302250015078158E+01
    0.14129537289102049868E+01
    0.14770983144633986761E+01
    0.14632982317912843762E+01
    0.14867803193497213243E+01
    0.14906598795131047464E+01
    0.14830734258373245993E+01
    0.14874955786191179641E+01
    0.14545741410376484826E+01
    0.14091314902965079714E+01
    0.12603987742528193206E+01
    0.13339698571235363289E+01
    0.12175810012059835596E+01
    0.12548969662016991045E+01
    0.13382581877620782773E+01
    0.12992950395880522585E+01
    0.13475947354380228838E+01
    0.13274831299987117639E+01
    0.12580494143890883496E+01
    0.12961861187822627528E+01
    0.11854241381283909806E+01
    0.10803538871075462069E+01
    0.85783992251586327349E+00
    0.97263897984026481680E+00
    0.74681675035838124277E+00
    0.63489365753731707986E+00
    0.52208861986400967314E+00
    0.56619321327932137233E+00
    0.51320616865548718266E+00
    0.52080210616131539236E+00
    0.56548365431860381225E+00
    0.53172886802605567880E+00
    0.58017325000989983241E+00
    0.58337943325838126363E+00
    0.60215111615356453623E+00
    0.58862481504790353792E+00
    0.59077105504785376588E+00
    0.54845816315785023143E+00
    0.52188604063115817677E+00
    0.53279504061546223426E+00
    0.51709568681259221457E+00
    0.50781122797464417484E+00
    0.54727886697893013412E+00
    0.52842743544080728046E+00
    0.78358708622405370825E+00
    0.80694919841659462634E+00
    0.88961063386467809089E+00
    0.84138261780820200464E+00
    0.89811515350350290543E+00
    0.86858286537848761188E+00
    0.81618404362742436042E+00
    0.84278384985280230257E+00
    0.76642947496837177113E+00
    0.68654335909668562365E+00
    0.57232355402709567116E+00
    0.62939961765126661852E+00
    0.53717824114141832226E+00
    0.50593115972273494663E+00
    0.53690566840149922534E+00
    0.51794076265838406847E+00
    0.14362476460708424320E+01
    0.14890512603222632038E+01
    0.14863059010488774980E+01
    0.14736231250150990668E+01
    0.14936455411860483089E+01
    0.14870678752426269575E+01
    0.14674381757666630222E+01
    0.14246446900918450229E+01
    0.14525553111046622945E+01
    0.14914682620773862531E+01
    0.12189036424765902211E+01
    0.13100752864600446745E+01
    0.10741626036071865169E+01
    0.11585641880506896140E+01
    0.13179511212930967723E+01
    0.11212476354758120767E+01
    0.14457359382845682561E+01
    0.13226802063092548689E+01
    0.11985955906562395512E+01
    0.14153588253951272513E+01
    0.14367512007515401695E+01
    0.13842726332604078365E+01
    0.12651068240966800715E+01
    0.11265481014740004184E+01
    0.10888833193151652434E+01
    0.91830083212480051458E+00
    0.88525614313410083689E+00
    0.98649695636747081195E+00
    0.11634566934869448041E+01
    0.14235894275523761632E+01
    0.14889430746255385429E+01
    0.14543329661461288360E+01
    0.14908665299002918925E+01
    0.14215198249137896980E+01
    0.14804656222899179596E+01
    0.14111858573008042583E+01
    0.14052172531840783076E+01
    0.12981109158968433537E+01
    0.12987424786976107249E+01
    0.14289430751300526978E+01
    0.12290118769592059955E+01
    0.11539192621425511387E+01
    0.89094675121029309750E+00
    0.11437165229377184161E+01
    0.99890519921167741924E+00
    0.98209550883243701414E+00
    0.13961100693476913293E+01
    0.11026121725715125610E+01
    0.12239091091955967006E+01
    0.13501752196701624076E+01
    0.13500554814863354736E+01
    0.11284145984553535236E+01
    0.12222092087348581657E+01
    0.70352942657621686529E+00
    0.81975555363086383132E+00
    0.62318180001146505909E+00
    0.84060689737029181678E+00
    0.91073571628384120125E+00
    0.63402195651749759797E+00
    0.68779113279180426055E+00
    0.11354454170222774145E+01
    0.12897849673669090631E+01
    0.10503259529850788034E+01
    0.13398362272729107403E+01
    0.12784470679012256422E+01
    0.10544518568059197960E+01
    0.11571999825042145194E+01
    0.14704353611512914757E+01
    0.14932081458580652722E+01
    0.14137851193510921899E+01
    0.14921952128303090923E+01
    0.14796239665896750992E+01
    0.14598927733226574333E+01
    0.14292384171575052143E+01
    0.58643772474071120815E+00
    0.56164117120256074056E+00
    0.51886852983847020493E+00
    0.67090331013983073305E+00
    0.65259329681236399878E+00
    0.52217360078282670788E+00
    0.52821086269615824538E+00
    0.14797725380527169126E+01
    0.14418959850232382358E+01
    0.13889584209300775974E+01
    0.14697432691781562308E+01
    0.13489322076430987352E+01
    0.14766920158344807312E+01
    0.14631048303656162268E+01
    0.14935404233333278157E+01
    0.14894001880231237944E+01
    0.14587288216344884706E+01
    0.14919049352329079028E+01
    0.13051379419796118597E+01
    0.14620206213442510368E+01
    0.14350654883491336111E+01
    0.14089924561261031322E+01
    0.13457187659020777293E+01
    0.75251354863184594102E+00
    0.87744746528425943133E+00
    0.75038158271291299783E+00
    0.86617407503238030841E+00
    0.93618864164981618892E+00
    0.14441073959784831438E+01
    0.14881868113922198660E+01
    0.14740727797545578603E+01
    0.14868888313470112195E+01
    0.14910771897436307931E+01
    0.11422372267793554634E+01
    0.12771132099069779642E+01
    0.13110989115633895352E+01
    0.11002579401637042622E+01
    0.12007551168953636278E+01
    0.14839102308848639566E+01
    0.14788591563809336815E+01
    0.14907118805201713396E+01
    0.14630344220454623017E+01
    0.14903338223825017828E+01
    0.10564524073061229981E+01
    0.12997000932121931527E+01
    0.11491509770198007345E+01
    0.11591944158270675036E+01
    0.12826685167122193754E+01
    0.14431995510164412622E+01
    0.14718424032197989781E+01
    0.14274923880594245773E+01
    0.14712859669690849795E+01
    0.13577816569670180247E+01
    0.73023676530804193519E+00
    0.99309632659262758736E+00
    0.83222791165573639649E+00
    0.79432113222762956717E+00
    0.93471602830482625190E+00
    0.71682655925755678350E+00
    0.63303492350774026587E+00
    0.73180869482499177892E+00
    0.63978724155673893925E+00
    0.81044669387148404738E+00
    0.12141205087310540378E+01
    0.14090006319606631635E+01
    0.13227734359824170340E+01
    0.14304561397218509278E+01
    0.14066649983404735380E+01
    0.13038676418065202611E+01
    0.12911427687426488831E+01
    0.14173958419439713907E+01
    0.13931752254695490834E+01
    0.14434364943376012391E+01
    0.14920002749784202489E+01
    0.14498115079917475168E+01
    0.14503823856423745386E+01
    0.14919757754762037472E+01
    0.12046309388616913694E+01
    0.11437542781090761501E+01
    0.11374192346174758494E+01
    0.13493723940379973580E+01
    0.10809480201578454128E+01
    0.12571115435539108596E+01
    0.63188039147611352320E+00
    0.68328029873967199848E+00
    0.83395666450184335883E+00
    0.81342739962243881813E+00
    0.82843727130508848511E+00
    0.95224477510018490367E+00
    0.97629419760810054463E+00
    0.10698816614729358410E+01
    0.12322417936039851138E+01
    0.13736723438268465536E+01
    0.13494612883835352957E+01
    0.14266028136861330644E+01
    0.14859590381190697084E+01
    0.14887208511563996272E+01
    0.13682604507894859935E+01
    0.14742067524265081158E+01
    0.13127052832451076014E+01
    0.10593731484102737461E+01
    0.11170973951635652099E+01
    0.14776202544637009328E+01
    0.14892043823394898183E+01
    0.79137533591368391939E+00
    0.65730611991698784102E+00
    0.60374113184221500639E+00
    0.12069473670023960210E+01
    0.10113655030112822519E+01
    0.98994232290096950688E+00
    0.14046932726751595322E+01
    0.14306867038610369125E+01
    0.12277032463990018574E+01
    0.14832920678385068669E+01
    0.14258669326677875233E+01
    0.14061145113053845623E+01
    0.98341877555975465430E+00
    0.10082849523297146010E+01
    0.74466361065999597812E+00
    0.14761192071026765227E+01
    0.14954332786977606595E+01
    0.14696678722908620429E+01
    0.69440730394634297973E+00
    0.66939591912189899681E+00
    0.54162387390543165200E+00
    0.64359469867924823383E+00
    0.56701034204618738777E+00
    0.52009015986329931724E+00
    0.14780811490685548115E+01
    0.13642437825189450695E+01
    0.14681830172324268347E+01
    0.14844748689908924266E+01
    0.12494134613209613160E+01
    0.14711252526156883835E+01
    0.14079809431079921556E+01
    0.13840489797643351633E+01
    0.97455229856368452701E+00
    0.13074921261511578408E+01
    0.12273592416154963658E+01
    0.10865550719234020605E+01
    0.14392175884175479883E+01
    0.14079438727172028933E+01
    0.12737998056656101298E+01
    0.14834098913885518378E+01
    0.14660314410527539586E+01
    0.92054489250768878339E+00
    0.10097662434609053772E+01
    0.55045487401632808844E+00
    0.58541503275174788801E+00
    0.13800122834458368182E+01
    0.13452725603721842340E+01
    0.50679170581529553452E+00
    0.50646624122002437129E+00
    0.13959115513242883466E+01
    0.10038177533248362483E+01
    0.99485555709540074432E+00
    0.14645938096015274077E+01
    0.77311955710458390989E+00
    0.13809520748557522207E+01
    0.13402960376128283393E+01
    0.85077284061770741541E+00
    0.14747311635534623431E+01
    0.13684997649359504912E+01
    0.14772350429975602548E+01
    0.12950442594029500931E+01
    0.14701318552402526940E+01
    0.77768240033120816790E+00
    0.87461692908222921083E+00
    0.12503175420205010493E+01
    0.14478847331707163093E+01
    0.14896009613078184941E+01
    0.10789167487581636795E+01
    0.14889534441326288672E+01
    0.14554990713873054986E+01
    0.12016420298363379437E+01
    0.98309057471321992239E+00
    0.72145369189261765452E+00
    0.65553411064213373827E+00
    0.11036293301368569342E+01
    0.10631262137862185213E+01
    0.51882328211700934339E+00
    0.51700631264731666814E+00
    0.63763790955800769833E+00
    0.62588402869761694536E+00
    0.97748696640441368189E+00
    0.12293256588854963862E+01
    0.13941560119372893300E+01
    0.14661880373650033604E+01
    0.14743363319794082766E+01
    0.14361396866270248474E+01
    0.13138281186237232845E+01
    0.11913230615812140378E+01
    0.12526930845038608542E+01
    0.12251175269387271083E+01
    0.11231614650044892123E+01
    0.94245411713393578701E+00
    0.73561770616796140487E+00
    0.56726103336343436379E+00
    0.50484594877998678619E+00
    0.52018330164427895035E+00
    0.53039372854511213085E+00
    0.52965192795408966298E+00
    0.51050465340380857260E+00
    0.50570557625120549083E+00
    0.53970908540997664105E+00
    0.73091879996311881484E+00
    0.77602850945898538271E+00
    0.75420091469897077019E+00
    0.69006580199910394491E+00
    0.59405209977644446440E+00
    0.52278389123666602067E+00
    0.52213459990163268998E+00
