# vtk DataFile Version 3.0
LAPLACIEN  2D
ASCII
DATASET UNSTRUCTURED_GRID
 POINTS         391  float
  0.50371505999999999       0.50367786999999997        0.0000000000000000     
  0.29013556000000001       0.29014535000000002        0.0000000000000000     
  0.70165584999999997       0.71206597999999999        0.0000000000000000     
  0.70304188999999995       0.30176619999999998        0.0000000000000000     
  0.30920671999999999       0.71149227999999998        0.0000000000000000     
  0.79044983999999996       0.49884783999999999        0.0000000000000000     
  0.49102621000000002       0.20968644000000000        0.0000000000000000     
  0.49912957000000002       0.77208717000000004        0.0000000000000000     
  0.21724072999999999       0.48989389000000000        0.0000000000000000     
  0.83255933999999998       0.83046598000000005        0.0000000000000000     
  0.16646774000000000       0.17015694000000001        0.0000000000000000     
  0.83054514999999995       0.16736480000000001        0.0000000000000000     
  0.16953130999999999       0.83265739000000005        0.0000000000000000     
  0.42166445000000002       0.36345201999999999        0.0000000000000000     
  0.64462200999999997       0.56347807999999999        0.0000000000000000     
  0.35324633999999999       0.56311191000000005        0.0000000000000000     
  0.65456411000000003       0.84856860999999995        0.0000000000000000     
  0.35141477999999998       0.15563974000000000        0.0000000000000000     
  0.15290967000000000       0.35206625000000003        0.0000000000000000     
  0.82942241000000005       0.34936866000000000        0.0000000000000000     
  0.84390527000000004       0.64441694999999999        0.0000000000000000     
  0.63699174999999997       0.14284276000000001        0.0000000000000000     
  0.15620682999999999       0.64648446999999998        0.0000000000000000     
  0.36426062999999997       0.85756310999999996        0.0000000000000000     
  0.63489340999999999       0.40519052000000000        0.0000000000000000     
  0.52518872999999999       0.65957078000000002        0.0000000000000000     
  0.32158959999999998       0.42298103999999997        0.0000000000000000     
  0.58861710000000000       0.31711036999999997        0.0000000000000000     
  0.42078418000000001       0.69497151999999995        0.0000000000000000     
  0.48608786999999998       0.89334152000000000        0.0000000000000000     
   9.7084320000000002E-002  0.50000000000000000        0.0000000000000000     
  0.90291568000000000       0.50000000000000000        0.0000000000000000     
  0.51392453000000005       0.10668648999999999        0.0000000000000000     
  0.59792566999999996       0.73122754000000001        0.0000000000000000     
  0.74510058999999995       0.41124730999999998        0.0000000000000000     
  0.73212551999999997       0.90191560000000004        0.0000000000000000     
   9.7784830000000003E-002  0.26957329000000002        0.0000000000000000     
  0.26711221000000002        9.8671499999999995E-002   0.0000000000000000     
  0.90191560000000004       0.26787448000000003        0.0000000000000000     
  0.90118569000000004       0.73039821000000005        0.0000000000000000     
  0.73122947000000005        9.8017859999999998E-002   0.0000000000000000     
   9.8084400000000002E-002  0.73212551999999997        0.0000000000000000     
  0.26957329000000002       0.90221516999999996        0.0000000000000000     
  0.39283522999999998       0.25360379000000000        0.0000000000000000     
  0.74480864000000002       0.60495284999999999        0.0000000000000000     
  0.25505132000000003       0.60593640999999998        0.0000000000000000     
  0.52159297999999998       0.40671636000000000        0.0000000000000000     
  0.40768852000000000       0.47699891000000000        0.0000000000000000     
   9.1467049999999994E-002   9.1876959999999994E-002   0.0000000000000000     
  0.90842484999999995       0.90819225000000003        0.0000000000000000     
  0.90820104999999995        9.1566729999999999E-002   0.0000000000000000     
   9.1807449999999999E-002  0.90843574000000005        0.0000000000000000     
  0.27098960000000000       0.20527094000000001        0.0000000000000000     
  0.73457293999999995       0.79835387000000002        0.0000000000000000     
  0.79817773000000003       0.25713470999999999        0.0000000000000000     
  0.20747797000000001       0.72863946000000002        0.0000000000000000     
  0.20175195000000001       0.27583914999999998        0.0000000000000000     
  0.79603889000000005       0.72159035000000005        0.0000000000000000     
  0.71761666000000002       0.19748431999999999        0.0000000000000000     
  0.28462607000000001       0.80251899999999998        0.0000000000000000     
  0.69134598999999997       0.49261972999999998        0.0000000000000000     
  0.44720578999999999       0.58582935999999997        0.0000000000000000     
  0.24242269999999999       0.37228174000000003        0.0000000000000000     
  0.38265623999999998       0.93072131999999996        0.0000000000000000     
  0.60971754000000000       0.91988369000000003        0.0000000000000000     
   7.9163609999999995E-002  0.60979116000000000        0.0000000000000000     
  0.92010649000000000       0.61081183999999999        0.0000000000000000     
  0.61954008999999999        7.1530830000000004E-002   0.0000000000000000     
  0.91882012999999996       0.38917363999999999        0.0000000000000000     
  0.39086346000000000        8.0652249999999995E-002   0.0000000000000000     
   7.9183480000000001E-002  0.38966213000000000        0.0000000000000000     
  0.59114111999999996       0.49294315000000000        0.0000000000000000     
  0.63337980999999999       0.64485914000000000        0.0000000000000000     
  0.50012352000000004       0.29676539000000002        0.0000000000000000     
  0.82552601000000003       0.92753492000000004        0.0000000000000000     
  0.92774772999999999       0.82498556999999995        0.0000000000000000     
   7.1970870000000006E-002  0.17510291000000000        0.0000000000000000     
  0.17422821999999999        7.2635640000000001E-002   0.0000000000000000     
  0.82510813000000005        7.2134840000000006E-002   0.0000000000000000     
  0.92754665000000003       0.17446275999999999        0.0000000000000000     
  0.17501022999999999       0.92789951999999998        0.0000000000000000     
   7.2464680000000004E-002  0.82554053000000005        0.0000000000000000     
  0.30731587999999999       0.50885354999999999        0.0000000000000000     
  0.59033407999999998       0.22171178999999999        0.0000000000000000     
  0.40109191999999999       0.78725542000000004        0.0000000000000000     
  0.35420917000000002       0.63754104000000000        0.0000000000000000     
  0.15983976999999999       0.56665573000000002        0.0000000000000000     
  0.84108459999999996       0.56757886999999996        0.0000000000000000     
  0.83902096000000004       0.43344338999999998        0.0000000000000000     
  0.43230028999999998       0.16004268999999999        0.0000000000000000     
  0.57536027999999995       0.83041363999999995        0.0000000000000000     
  0.15771898000000001       0.42747892999999998        0.0000000000000000     
  0.34021692999999997       0.34221559000000001        0.0000000000000000     
  0.56002271999999997       0.57501117999999996        0.0000000000000000     
  0.65344329000000001       0.78147597999999996        0.0000000000000000     
   0.0000000000000000        0.0000000000000000        0.0000000000000000     
   1.0000000000000000        0.0000000000000000        0.0000000000000000     
   1.0000000000000000        1.0000000000000000        0.0000000000000000     
   0.0000000000000000        1.0000000000000000        0.0000000000000000     
  0.11111111000000000        0.0000000000000000        0.0000000000000000     
  0.22222222000000000        0.0000000000000000        0.0000000000000000     
  0.33333332999999998        0.0000000000000000        0.0000000000000000     
  0.44444444000000000        0.0000000000000000        0.0000000000000000     
  0.55555555999999995        0.0000000000000000        0.0000000000000000     
  0.66666667000000002        0.0000000000000000        0.0000000000000000     
  0.77777777999999997        0.0000000000000000        0.0000000000000000     
  0.88888889000000004        0.0000000000000000        0.0000000000000000     
   1.0000000000000000       0.11111111000000000        0.0000000000000000     
   1.0000000000000000       0.22222222000000000        0.0000000000000000     
   1.0000000000000000       0.33333332999999998        0.0000000000000000     
   1.0000000000000000       0.44444444000000000        0.0000000000000000     
   1.0000000000000000       0.55555555999999995        0.0000000000000000     
   1.0000000000000000       0.66666667000000002        0.0000000000000000     
   1.0000000000000000       0.77777777999999997        0.0000000000000000     
   1.0000000000000000       0.88888889000000004        0.0000000000000000     
  0.88888889000000004        1.0000000000000000        0.0000000000000000     
  0.77777777999999997        1.0000000000000000        0.0000000000000000     
  0.66666667000000002        1.0000000000000000        0.0000000000000000     
  0.55555555999999995        1.0000000000000000        0.0000000000000000     
  0.44444444000000000        1.0000000000000000        0.0000000000000000     
  0.33333332999999998        1.0000000000000000        0.0000000000000000     
  0.22222222000000000        1.0000000000000000        0.0000000000000000     
  0.11111111000000000        1.0000000000000000        0.0000000000000000     
   0.0000000000000000       0.11111111000000000        0.0000000000000000     
   0.0000000000000000       0.22222222000000000        0.0000000000000000     
[...]
 CELL_DATA         354
 SCALARS C float
 LOOKUP_TABLE default
    0.82359369327969189634E+00
    0.11209671101666496273E+01
    0.61531395522875986792E+00
    0.66884188906733710311E+00
    0.92604055600852563934E+00
    0.10213992767418687002E+01
    0.11283108459126816037E+01
    0.10886427955789614863E+01
    0.11694645699923673643E+01
    0.11729276547094078520E+01
    0.11562108556127006498E+01
    0.11730594923883597147E+01
    0.11558376838942749920E+01
    0.11550184418541216136E+01
    0.11610301985657811574E+01
    0.11545807796992109129E+01
    0.11571846191835577500E+01
    0.11699020476334505148E+01
    0.11677031483208117901E+01
    0.11606113652562344285E+01
    0.11571973847519521073E+01
    0.11558971650529330510E+01
    0.11752974579061357119E+01
    0.11671618718928935543E+01
    0.11756756934514360768E+01
    0.11712188569857862053E+01
    0.11724474828421609374E+01
    0.11707257413053577810E+01
    0.11440161989059114411E+01
    0.10905395477045334296E+01
    0.92439228194026357155E+00
    0.10219017350697541247E+01
    0.82730054389536467063E+00
    0.72884539608533560617E+00
    0.62361231297374863924E+00
    0.66535811355716456550E+00
    0.61317676601197246278E+00
    0.62160555083929835973E+00
    0.66486413342888806000E+00
    0.63361415400098919370E+00
    0.67874990650153943506E+00
    0.68174835138095324361E+00
    0.69875579088399653038E+00
    0.68675689662937755564E+00
    0.68824288826062085533E+00
    0.65010390289507513639E+00
    0.62354817016571972843E+00
    0.63442637939629564769E+00
    0.61637969445728668649E+00
    0.60402038719059603089E+00
    0.62989680985909235478E+00
    0.61732842289473099928E+00
    0.86023830628396380504E+00
    0.88119354973216079685E+00
    0.95273426574260766664E+00
    0.91158587058679518833E+00
    0.95976742505592771426E+00
    0.93441942732181881848E+00
    0.88873533958230599428E+00
    0.91194028171798224847E+00
    0.84468626937116775277E+00
    0.77494711427565687867E+00
    0.67194017862777266625E+00
    0.72329619259585742341E+00
    0.63779953871296168888E+00
    0.60632666252462830148E+00
    0.62295903451955669805E+00
    0.61136659627276379592E+00
    0.11446400995413605894E+01
    0.11687345686749350815E+01
    0.11726139563092534690E+01
    0.11594248340207800041E+01
    0.11698799732833959908E+01
    0.11634876719020696978E+01
    0.11856999820399531931E+01
    0.11888404534961622971E+01
    0.11940294585011952400E+01
    0.11788332186019221393E+01
    0.11485456920633887457E+01
    0.11737419532432231684E+01
    0.10946482854850494437E+01
    0.11194215661921917970E+01
    0.11793820356335702471E+01
    0.11141279096930574166E+01
    0.11524930840650935426E+01
    0.11230719977988852243E+01
    0.10579958228134251907E+01
    0.11459821755150461087E+01
    0.11476411589383002099E+01
    0.11368634991286568070E+01
    0.10986757999109015849E+01
    0.11178924826774128132E+01
    0.10886284803445773761E+01
    0.97122565245824976632E+00
    0.94469893165090668141E+00
    0.10284208288844625123E+01
    0.11253846407734551249E+01
    0.11921031158935926353E+01
    0.11655266681961935493E+01
    0.11875419872621031381E+01
    0.11758507330405572056E+01
    0.11921568640829955932E+01
    0.11910630679229530227E+01
    0.11385069146891264591E+01
    0.11361489655867051951E+01
    0.11005931490353495494E+01
    0.10998402682139096775E+01
    0.11364532198340218105E+01
    0.11387438264433389357E+01
    0.11198420527396351076E+01
    0.94941086470563385014E+00
    0.11146051589666374770E+01
    0.10342327275735685443E+01
    0.10210429250108123966E+01
    0.11838608689453800071E+01
    0.11092756061415576241E+01
    0.11547881628273455323E+01
    0.11794078539656700499E+01
    0.11896240665758945898E+01
    0.11224522555648015487E+01
    0.11521758429472721552E+01
    0.78882140658379806819E+00
    0.88959462688911039585E+00
    0.71696372481245229658E+00
    0.90682303409033893082E+00
    0.96640676133277814142E+00
    0.72679052238437247269E+00
    0.77485791467660536380E+00
    0.11211485641851015593E+01
    0.11648840692252613316E+01
    0.10792169099352557637E+01
    0.11835918245127030612E+01
    0.11736075350411117046E+01
    0.10861953335331260284E+01
    0.11228880435405077520E+01
    0.11909771088892275870E+01
    0.11739459855527658583E+01
    0.11830646417440600082E+01
    0.11756914559706426182E+01
    0.11602134994184174488E+01
    0.11829850405585111695E+01
    0.11887409147296117418E+01
    0.68461213542958521128E+00
    0.66203183167153700772E+00
    0.61907516268872408993E+00
    0.75943488731807340386E+00
    0.74361436346635045869E+00
    0.62376119123635564989E+00
    0.63002203608706275340E+00
    0.11614584995002805723E+01
    0.11491205289751038610E+01
    0.11348297167629264326E+01
    0.11583266830219778321E+01
    0.11159038221725654516E+01
    0.11568226668072014718E+01
    0.11902681400652963539E+01
    0.11765322831936368964E+01
    0.11618352531570208530E+01
    0.11913166419682721386E+01
    0.11804014879782451786E+01
    0.11714838822598743207E+01
    0.11748686881686354333E+01
    0.11839169409722483106E+01
    0.11915104898937001199E+01
    0.11836623462778241844E+01
    0.83098599715559040568E+00
    0.93734777691831594471E+00
    0.82927577043520450673E+00
    0.92796247344158833137E+00
    0.98724624126987592376E+00
    0.11844771550333770271E+01
    0.11625159533894580122E+01
    0.11841029870662811430E+01
    0.11867294873084697215E+01
    0.11648003027560016598E+01
    0.11249095063060852162E+01
    0.11681790157947993247E+01
    0.11738781421970740926E+01
    0.11099616855978537977E+01
    0.11414004168223936819E+01
    0.11684527372455237870E+01
    0.11924919399587119440E+01
    0.11765611469972532266E+01
    0.11920851394604925488E+01
    0.11867164155253688840E+01
    0.10831060172476929537E+01
    0.11716775922272397725E+01
    0.11154815044856754014E+01
    0.11333037692926191120E+01
    0.11673341074435643616E+01
    0.11449078232064366922E+01
    0.11499405451020328073E+01
    0.11430761289751143472E+01
    0.11447546866582529734E+01
    0.11114995666113627326E+01
    0.81150962749998067913E+00
    0.10345556061013301274E+01
    0.89974879630365456329E+00
    0.86716489798509865938E+00
    0.98611752612647063376E+00
    0.80078478181137247027E+00
    0.72654686043616689695E+00
    0.81380877389793526699E+00
    0.73299234461704043664E+00
    0.88198779169236196651E+00
    0.10601093493597664175E+01
    0.11433798076006707056E+01
    0.11206129246168570202E+01
    0.11459336710976051332E+01
    0.11402103753961998489E+01
    0.11691779888531266263E+01
    0.11683330506151246020E+01
    0.11905375304035863415E+01
    0.11918831668968672410E+01
    0.11866965644606064512E+01
    0.11779445003153306004E+01
    0.11947902495107149967E+01
    0.11920079115257582458E+01
    0.11806951871720583469E+01
    0.10581319077936099937E+01
    0.10335312533272915658E+01
    0.10315047955493890086E+01
    0.11775132145879623202E+01
    0.10995807407259456934E+01
    0.11614321060222432269E+01
    0.72578985925310157690E+00
    0.77134565319225223412E+00
    0.90207347991629460715E+00
    0.88366955910782873929E+00
    0.89774858244974120591E+00
    0.10033777116923616735E+01
    0.10200823169408126390E+01
    0.10853957145103516613E+01
    0.11664304391309687770E+01
    0.12014084499327677413E+01
    0.11954711715352228651E+01
    0.11967747358749150077E+01
    0.11517562638575054024E+01
    0.11579254599220250022E+01
    0.11171576132202039044E+01
    0.11529323098333341679E+01
    0.11786032259941472411E+01
    0.10852740955573043635E+01
    0.11119914789833971192E+01
    0.11635562707590101361E+01
    0.11687628733272128478E+01
    0.86415022290812459893E+00
    0.74836992380437128425E+00
    0.70011161830197798928E+00
    0.11424226354400683903E+01
    0.10516381580711056110E+01
    0.10334335619419525720E+01
    0.11955058798560593836E+01
    0.11839924189836577018E+01
    0.11354843432450474339E+01
    0.11803560828389421111E+01
    0.11959393741912149878E+01
    0.11903811097739880331E+01
    0.10243819910819011998E+01
    0.10481997687264392738E+01
    0.82462580781413852282E+00
    0.11561707555157045846E+01
    0.11546347035177033646E+01
    0.11674156362440459844E+01
    0.78021378965238519232E+00
    0.75866773140057508495E+00
    0.64253525096414043638E+00
    0.73547592943591399983E+00
    0.66714391697902675205E+00
    0.62164159346585401433E+00
    0.11620753220959405549E+01
    0.11184043673421841802E+01
    0.11536864965453008658E+01
    0.11608936236762172900E+01
    0.11447005679891990582E+01
    0.11766077928553539955E+01
    0.11984047521088263544E+01
    0.11902853940051270065E+01
    0.10183253218912406979E+01
    0.11748637996925097582E+01
    0.11543307283603996272E+01
    0.10898980218660692110E+01
    0.11452401392742563857E+01
    0.11414336432930618503E+01
    0.11005862656418423651E+01
    0.11768648839449096233E+01
    0.11777889536931895886E+01
    0.97802036050437923809E+00
    0.10456406086411196288E+01
    0.65121284801846235357E+00
    0.68330137764833942526E+00
    0.11820283034167686775E+01
    0.11862807265069292839E+01
    0.60423134500506980871E+00
    0.60523114041140591013E+00
    0.11976835615922323264E+01
    0.10378672926180556590E+01
    0.10351143554536808011E+01
    0.11569132269794100143E+01
    0.84918518986962676642E+00
    0.11910548702502365970E+01
    0.11159000767354059214E+01
    0.91653981084248892230E+00
    0.11610070200739899260E+01
    0.11822588558775326550E+01
    0.11852253984389578001E+01
    0.11646505172409307161E+01
    0.11835384021933372800E+01
    0.85266859461404143072E+00
    0.93634279641623430201E+00
    0.11621996824062090781E+01
    0.12021930762473702625E+01
    0.11630166456419432919E+01
    0.10942466174601517270E+01
    0.11599745754534884767E+01
    0.11904143571787890732E+01
    0.10742421685343932491E+01
    0.10265976812773018878E+01
    0.80504185201548361661E+00
    0.74775136352445226162E+00
    0.11106260418375182297E+01
    0.10812815191390781067E+01
    0.61337056048473015402E+00
    0.60917543409050622927E+00
    0.69765908493901662712E+00
    0.68932910200009256396E+00
    0.10245208237615679447E+01
    0.11733190792992851392E+01
    0.12534563371035152279E+01
    0.12726309474450578918E+01
    0.12724407627803588916E+01
    0.12626097279076846647E+01
    0.12187149753450507994E+01
    0.11618716606674528435E+01
    0.11944160433021668855E+01
    0.11798350422798102866E+01
    0.11251478932023679658E+01
    0.99870268545749385503E+00
    0.81847329943848723399E+00
    0.66614173832085810112E+00
    0.60519629303099287121E+00
    0.62291646149203172556E+00
    0.63343422785218372884E+00
    0.63243937745246170401E+00
    0.61284537232766744808E+00
    0.60360329177235139131E+00
    0.62415998523033477952E+00
    0.81535188552735471390E+00
    0.85544781027865113288E+00
    0.83633653673511798576E+00
    0.77916463085866971561E+00
    0.69247629597188531392E+00
    0.62429337107196725132E+00
    0.61339973458114371851E+00
