# vtk DataFile Version 3.0
LAPLACIEN  2D
ASCII
DATASET UNSTRUCTURED_GRID
 POINTS         391  float
  0.50371505999999999       0.50367786999999997        0.0000000000000000     
  0.29013556000000001       0.29014535000000002        0.0000000000000000     
  0.70165584999999997       0.71206597999999999        0.0000000000000000     
  0.70304188999999995       0.30176619999999998        0.0000000000000000     
  0.30920671999999999       0.71149227999999998        0.0000000000000000     
  0.79044983999999996       0.49884783999999999        0.0000000000000000     
  0.49102621000000002       0.20968644000000000        0.0000000000000000     
  0.49912957000000002       0.77208717000000004        0.0000000000000000     
  0.21724072999999999       0.48989389000000000        0.0000000000000000     
  0.83255933999999998       0.83046598000000005        0.0000000000000000     
  0.16646774000000000       0.17015694000000001        0.0000000000000000     
  0.83054514999999995       0.16736480000000001        0.0000000000000000     
  0.16953130999999999       0.83265739000000005        0.0000000000000000     
  0.42166445000000002       0.36345201999999999        0.0000000000000000     
  0.64462200999999997       0.56347807999999999        0.0000000000000000     
  0.35324633999999999       0.56311191000000005        0.0000000000000000     
  0.65456411000000003       0.84856860999999995        0.0000000000000000     
  0.35141477999999998       0.15563974000000000        0.0000000000000000     
  0.15290967000000000       0.35206625000000003        0.0000000000000000     
  0.82942241000000005       0.34936866000000000        0.0000000000000000     
  0.84390527000000004       0.64441694999999999        0.0000000000000000     
  0.63699174999999997       0.14284276000000001        0.0000000000000000     
  0.15620682999999999       0.64648446999999998        0.0000000000000000     
  0.36426062999999997       0.85756310999999996        0.0000000000000000     
  0.63489340999999999       0.40519052000000000        0.0000000000000000     
  0.52518872999999999       0.65957078000000002        0.0000000000000000     
  0.32158959999999998       0.42298103999999997        0.0000000000000000     
  0.58861710000000000       0.31711036999999997        0.0000000000000000     
  0.42078418000000001       0.69497151999999995        0.0000000000000000     
  0.48608786999999998       0.89334152000000000        0.0000000000000000     
   9.7084320000000002E-002  0.50000000000000000        0.0000000000000000     
  0.90291568000000000       0.50000000000000000        0.0000000000000000     
  0.51392453000000005       0.10668648999999999        0.0000000000000000     
  0.59792566999999996       0.73122754000000001        0.0000000000000000     
  0.74510058999999995       0.41124730999999998        0.0000000000000000     
  0.73212551999999997       0.90191560000000004        0.0000000000000000     
   9.7784830000000003E-002  0.26957329000000002        0.0000000000000000     
  0.26711221000000002        9.8671499999999995E-002   0.0000000000000000     
  0.90191560000000004       0.26787448000000003        0.0000000000000000     
  0.90118569000000004       0.73039821000000005        0.0000000000000000     
  0.73122947000000005        9.8017859999999998E-002   0.0000000000000000     
   9.8084400000000002E-002  0.73212551999999997        0.0000000000000000     
  0.26957329000000002       0.90221516999999996        0.0000000000000000     
  0.39283522999999998       0.25360379000000000        0.0000000000000000     
  0.74480864000000002       0.60495284999999999        0.0000000000000000     
  0.25505132000000003       0.60593640999999998        0.0000000000000000     
  0.52159297999999998       0.40671636000000000        0.0000000000000000     
  0.40768852000000000       0.47699891000000000        0.0000000000000000     
   9.1467049999999994E-002   9.1876959999999994E-002   0.0000000000000000     
  0.90842484999999995       0.90819225000000003        0.0000000000000000     
  0.90820104999999995        9.1566729999999999E-002   0.0000000000000000     
   9.1807449999999999E-002  0.90843574000000005        0.0000000000000000     
  0.27098960000000000       0.20527094000000001        0.0000000000000000     
  0.73457293999999995       0.79835387000000002        0.0000000000000000     
  0.79817773000000003       0.25713470999999999        0.0000000000000000     
  0.20747797000000001       0.72863946000000002        0.0000000000000000     
  0.20175195000000001       0.27583914999999998        0.0000000000000000     
  0.79603889000000005       0.72159035000000005        0.0000000000000000     
  0.71761666000000002       0.19748431999999999        0.0000000000000000     
  0.28462607000000001       0.80251899999999998        0.0000000000000000     
  0.69134598999999997       0.49261972999999998        0.0000000000000000     
  0.44720578999999999       0.58582935999999997        0.0000000000000000     
  0.24242269999999999       0.37228174000000003        0.0000000000000000     
  0.38265623999999998       0.93072131999999996        0.0000000000000000     
  0.60971754000000000       0.91988369000000003        0.0000000000000000     
   7.9163609999999995E-002  0.60979116000000000        0.0000000000000000     
  0.92010649000000000       0.61081183999999999        0.0000000000000000     
  0.61954008999999999        7.1530830000000004E-002   0.0000000000000000     
  0.91882012999999996       0.38917363999999999        0.0000000000000000     
  0.39086346000000000        8.0652249999999995E-002   0.0000000000000000     
   7.9183480000000001E-002  0.38966213000000000        0.0000000000000000     
  0.59114111999999996       0.49294315000000000        0.0000000000000000     
  0.63337980999999999       0.64485914000000000        0.0000000000000000     
  0.50012352000000004       0.29676539000000002        0.0000000000000000     
  0.82552601000000003       0.92753492000000004        0.0000000000000000     
  0.92774772999999999       0.82498556999999995        0.0000000000000000     
   7.1970870000000006E-002  0.17510291000000000        0.0000000000000000     
  0.17422821999999999        7.2635640000000001E-002   0.0000000000000000     
  0.82510813000000005        7.2134840000000006E-002   0.0000000000000000     
  0.92754665000000003       0.17446275999999999        0.0000000000000000     
  0.17501022999999999       0.92789951999999998        0.0000000000000000     
   7.2464680000000004E-002  0.82554053000000005        0.0000000000000000     
  0.30731587999999999       0.50885354999999999        0.0000000000000000     
  0.59033407999999998       0.22171178999999999        0.0000000000000000     
  0.40109191999999999       0.78725542000000004        0.0000000000000000     
  0.35420917000000002       0.63754104000000000        0.0000000000000000     
  0.15983976999999999       0.56665573000000002        0.0000000000000000     
  0.84108459999999996       0.56757886999999996        0.0000000000000000     
  0.83902096000000004       0.43344338999999998        0.0000000000000000     
  0.43230028999999998       0.16004268999999999        0.0000000000000000     
  0.57536027999999995       0.83041363999999995        0.0000000000000000     
  0.15771898000000001       0.42747892999999998        0.0000000000000000     
  0.34021692999999997       0.34221559000000001        0.0000000000000000     
  0.56002271999999997       0.57501117999999996        0.0000000000000000     
  0.65344329000000001       0.78147597999999996        0.0000000000000000     
   0.0000000000000000        0.0000000000000000        0.0000000000000000     
   1.0000000000000000        0.0000000000000000        0.0000000000000000     
   1.0000000000000000        1.0000000000000000        0.0000000000000000     
   0.0000000000000000        1.0000000000000000        0.0000000000000000     
  0.11111111000000000        0.0000000000000000        0.0000000000000000     
  0.22222222000000000        0.0000000000000000        0.0000000000000000     
  0.33333332999999998        0.0000000000000000        0.0000000000000000     
  0.44444444000000000        0.0000000000000000        0.0000000000000000     
  0.55555555999999995        0.0000000000000000        0.0000000000000000     
  0.66666667000000002        0.0000000000000000        0.0000000000000000     
  0.77777777999999997        0.0000000000000000        0.0000000000000000     
  0.88888889000000004        0.0000000000000000        0.0000000000000000     
   1.0000000000000000       0.11111111000000000        0.0000000000000000     
   1.0000000000000000       0.22222222000000000        0.0000000000000000     
   1.0000000000000000       0.33333332999999998        0.0000000000000000     
   1.0000000000000000       0.44444444000000000        0.0000000000000000     
   1.0000000000000000       0.55555555999999995        0.0000000000000000     
   1.0000000000000000       0.66666667000000002        0.0000000000000000     
   1.0000000000000000       0.77777777999999997        0.0000000000000000     
   1.0000000000000000       0.88888889000000004        0.0000000000000000     
  0.88888889000000004        1.0000000000000000        0.0000000000000000     
  0.77777777999999997        1.0000000000000000        0.0000000000000000     
  0.66666667000000002        1.0000000000000000        0.0000000000000000     
  0.55555555999999995        1.0000000000000000        0.0000000000000000     
  0.44444444000000000        1.0000000000000000        0.0000000000000000     
  0.33333332999999998        1.0000000000000000        0.0000000000000000     
  0.22222222000000000        1.0000000000000000        0.0000000000000000     
  0.11111111000000000        1.0000000000000000        0.0000000000000000     
   0.0000000000000000       0.11111111000000000        0.0000000000000000     
   0.0000000000000000       0.22222222000000000        0.0000000000000000     
[...]
 CELL_DATA         354
 SCALARS C float
 LOOKUP_TABLE default
    0.74255986666515094718E+00
    0.11471909830086817195E+01
    0.51938375806576064786E+00
    0.59888195118190490351E+00
    0.85995019785788873179E+00
    0.97492171100657387672E+00
    0.12363074078891556074E+01
    0.11079523966805679969E+01
    0.13430313563376978792E+01
    0.14129533497517439145E+01
    0.14770975835364625883E+01
    0.14632978131969494040E+01
    0.14867790532939426651E+01
    0.14906583844985192844E+01
    0.14830721897284533384E+01
    0.14874938710609186820E+01
    0.14545742400509338310E+01
    0.14091322104298515949E+01
    0.12603986272404243962E+01
    0.13339699339415171941E+01
    0.12175835508532721896E+01
    0.12548989423103953378E+01
    0.13382608260692281377E+01
    0.12992977120788680168E+01
    0.13475980192842329508E+01
    0.13274861625878857652E+01
    0.12580522983198612064E+01
    0.12961885916713795641E+01
    0.11854286256897006435E+01
    0.10803582681023899958E+01
    0.85784494025018243057E+00
    0.97264297923549647429E+00
    0.74682258307860349689E+00
    0.63489768267100543664E+00
    0.52209094383074583501E+00
    0.56619633240099709326E+00
    0.51320770080457811524E+00
    0.52080456321798473951E+00
    0.56548762892472392849E+00
    0.53173173241918947340E+00
    0.58017884709167699686E+00
    0.58338474925620353861E+00
    0.60215709661867888869E+00
    0.58863012951453841382E+00
    0.59077579515749079064E+00
    0.54846207705057281601E+00
    0.52188981569126513538E+00
    0.53279947206596445231E+00
    0.51709807636567772793E+00
    0.50781223324905078176E+00
    0.54727871411147965830E+00
    0.52842847055125441447E+00
    0.78359164814696435908E+00
    0.80695331812275128414E+00
    0.88961627323964942438E+00
    0.84138775227883688679E+00
    0.89812262529967745728E+00
    0.86858964013938100290E+00
    0.81618976159004441584E+00
    0.84278941220520875444E+00
    0.76643582222536577042E+00
    0.68654873592653564707E+00
    0.57232889620921123530E+00
    0.62940495061008616684E+00
    0.53718217529970946345E+00
    0.50593317654078928669E+00
    0.53690662024150159759E+00
    0.51794259988556368146E+00
    0.14362452364246838243E+01
    0.14890479019687221651E+01
    0.14863019290971104525E+01
    0.14736203413302515486E+01
    0.14936421815155189741E+01
    0.14870654012169812752E+01
    0.14674348328727111479E+01
    0.14246401434976354583E+01
    0.14525514559896206546E+01
    0.14914648665819099094E+01
    0.12189036573625058324E+01
    0.13100740323298527557E+01
    0.10741610004571251480E+01
    0.11585630521137821880E+01
    0.13179474235785126890E+01
    0.11212495960292572228E+01
    0.14457341869008668578E+01
    0.13226829173920104932E+01
    0.11986109497577719374E+01
    0.14153565999965305178E+01
    0.14367495464408288619E+01
    0.13842694255181657859E+01
    0.12651139592462021799E+01
    0.11265427425833312025E+01
    0.10888798584778514034E+01
    0.91829982321293557312E+00
    0.88525612790350149961E+00
    0.98649556106986224790E+00
    0.11634503211402493772E+01
    0.14235860511726301514E+01
    0.14889402821343542538E+01
    0.14543296295268048901E+01
    0.14908629762959257903E+01
    0.14215177718646545557E+01
    0.14804618897400183553E+01
    0.14111857318135354600E+01
    0.14052176840326049412E+01
    0.12981110351691615978E+01
    0.12987420520310690719E+01
    0.14289402686683119192E+01
    0.12290086469667771407E+01
    0.11539178860998717813E+01
    0.89094277754365724942E+00
    0.11437152861744772636E+01
    0.99890214673762167674E+00
    0.98209499575599190635E+00
    0.13961054081686645745E+01
    0.11026100651420327470E+01
    0.12239064550840152990E+01
    0.13501733510418576500E+01
    0.13500504492210321228E+01
    0.11284165632744873609E+01
    0.12222074664358164586E+01
    0.70353145389662397058E+00
    0.81975713907149327930E+00
    0.62318409106631278416E+00
    0.84060484442707827935E+00
    0.91073374580954102875E+00
    0.63402692351550316019E+00
    0.68779506229141906815E+00
    0.11354449174580696358E+01
    0.12897829567689829133E+01
    0.10503260740413522534E+01
    0.13398311133539517748E+01
    0.12784425971511175213E+01
    0.10544542769066418408E+01
    0.11572003309768332802E+01
    0.14704319250215309722E+01
    0.14932049545631145282E+01
    0.14137829797355179196E+01
    0.14921913872480765395E+01
    0.14796213620337534955E+01
    0.14598896051353453807E+01
    0.14292368226676950282E+01
    0.58644124738267200403E+00
    0.56164509662620154540E+00
    0.51887112493633069654E+00
    0.67090362593541730263E+00
    0.65259431508824516932E+00
    0.52217788046277613390E+00
    0.52821543785792679504E+00
    0.14797697702131373809E+01
    0.14418938676813781719E+01
    0.13889577674085926695E+01
    0.14697410693467563014E+01
    0.13489326770873144579E+01
    0.14766886643850023475E+01
    0.14631000339653166264E+01
    0.14935367755913362409E+01
    0.14893971456108088258E+01
    0.14587237566600239624E+01
    0.14919018538822195197E+01
    0.13051323200207773922E+01
    0.14620189825516682891E+01
    0.14350624234136972746E+01
    0.14089886707040446545E+01
    0.13457147980641450680E+01
    0.75251085803594974788E+00
    0.87744548083015061479E+00
    0.75037809763605600732E+00
    0.86617473612758577595E+00
    0.93618814466663580198E+00
    0.14441019656074276512E+01
    0.14881837419364389863E+01
    0.14740690321223499648E+01
    0.14868841102003989008E+01
    0.14910740063840766112E+01
    0.11422314219734042151E+01
    0.12771108000815754036E+01
    0.13110982433315370166E+01
    0.11002518974806028140E+01
    0.12007535518531968766E+01
    0.14839072481087864919E+01
    0.14788543646326637315E+01
    0.14907087623618524574E+01
    0.14630297496245758815E+01
    0.14903303453360678965E+01
    0.10564466122202862408E+01
    0.12996986013800415627E+01
    0.11491491192985505698E+01
    0.11591889003593882634E+01
    0.12826663139211269549E+01
    0.14431967353672421339E+01
    0.14718402163624761947E+01
    0.14274902310501180747E+01
    0.14712810782383609620E+01
    0.13577824217421157194E+01
    0.73023421275231958916E+00
    0.99309789774047718680E+00
    0.83222925426894867051E+00
    0.79431832346671416012E+00
    0.93471619495383762022E+00
    0.71683178321343921091E+00
    0.63303506763053463136E+00
    0.73181139579466858436E+00
    0.63979121995665977352E+00
    0.81044978115276045116E+00
    0.12141297809273197128E+01
    0.14089980049245347526E+01
    0.13227755465814374780E+01
    0.14304547463334216229E+01
    0.14066633770877499110E+01
    0.13038638803397879506E+01
    0.12911402564074991872E+01
    0.14173917717950927919E+01
    0.13931716661626345477E+01
    0.14434323016938639395E+01
    0.14919966191014542023E+01
    0.14498066521898214098E+01
    0.14503789749541244891E+01
    0.14919730664046935154E+01
    0.12046417132352928991E+01
    0.11437722611267642225E+01
    0.11374409010730104352E+01
    0.13493700369775165626E+01
    0.10809463756672144097E+01
    0.12571082260718018375E+01
    0.63188600188090782162E+00
    0.68328103296487108231E+00
    0.83395439560319983840E+00
    0.81342532143845369674E+00
    0.82843644737252120080E+00
    0.95224206074339579065E+00
    0.97629317620107847198E+00
    0.10698758766504434803E+01
    0.12322386537020677544E+01
    0.13736675988314757113E+01
    0.13494575554076972956E+01
    0.14265972282780399194E+01
    0.14859535071540701523E+01
    0.14887178672395990908E+01
    0.13682635452314872992E+01
    0.14742037438093729129E+01
    0.13127019673222579677E+01
    0.10593718563309160174E+01
    0.11170979325799377246E+01
    0.14776174084813602505E+01
    0.14892014137268367868E+01
    0.79137397120598573785E+00
    0.65730550139750376637E+00
    0.60374566483045555287E+00
    0.12069435459167132674E+01
    0.10113624492155202095E+01
    0.98994390035143320361E+00
    0.14046879877654288027E+01
    0.14306814488866894663E+01
    0.12277041877981107465E+01
    0.14832876813984166020E+01
    0.14258628478565009701E+01
    0.14061121310890303260E+01
    0.98341558635504888741E+00
    0.10082804088838484002E+01
    0.74466819318072718925E+00
    0.14761167576776299537E+01
    0.14954301333472768132E+01
    0.14696651073936730647E+01
    0.69440733019363898304E+00
    0.66939524957246443471E+00
    0.54162838077676367377E+00
    0.64359594609421399980E+00
    0.56701213594132171547E+00
    0.52009443859085935369E+00
    0.14780788185277224933E+01
    0.13642466046697760973E+01
    0.14681798709400863956E+01
    0.14844709219557334912E+01
    0.12494132016031564980E+01
    0.14711217149419217876E+01
    0.14079763709382093761E+01
    0.13840463933605833269E+01
    0.97455355265654552976E+00
    0.13074852141912935988E+01
    0.12273539324013869045E+01
    0.10865562057442499366E+01
    0.14392163153923926977E+01
    0.14079414497324482802E+01
    0.12738053468735526241E+01
    0.14834065178378135208E+01
    0.14660293204954786273E+01
    0.92054495027818405983E+00
    0.10097651658358164362E+01
    0.55045756347573027156E+00
    0.58541709938654307166E+00
    0.13800090898685237750E+01
    0.13452698552985977720E+01
    0.50679462624923221625E+00
    0.50646921588295434891E+00
    0.13959067848429731473E+01
    0.10038157684317638996E+01
    0.99485336814419733642E+00
    0.14645915446896886625E+01
    0.77311911439625335962E+00
    0.13809492106340430784E+01
    0.13402931440030614318E+01
    0.85077571120356509926E+00
    0.14747288482749265626E+01
    0.13684980223841045621E+01
    0.14772312876001691961E+01
    0.12950455601241448456E+01
    0.14701284533287308776E+01
    0.77768040503556001841E+00
    0.87461472945061202733E+00
    0.12503134312271726447E+01
    0.14478799296706272859E+01
    0.14895978880193645466E+01
    0.10789122040827545668E+01
    0.14889509709065897880E+01
    0.14554946603770604341E+01
    0.12016507613432771961E+01
    0.98309016267172999459E+00
    0.72145635509698102794E+00
    0.65554138198629496870E+00
    0.11036327508339214276E+01
    0.10631328691961206001E+01
    0.51882441636501885895E+00
    0.51700682145960530356E+00
    0.63763503347062022719E+00
    0.62588236539387653856E+00
    0.97749053964531051886E+00
    0.12293302895272404385E+01
    0.13941585239133769125E+01
    0.14661888172198442870E+01
    0.14743371327333716359E+01
    0.14361414743342741929E+01
    0.13138309649432931003E+01
    0.11913293198399674822E+01
    0.12526997113886517710E+01
    0.12251243160453957337E+01
    0.11231685227783818615E+01
    0.94246128656810945756E+00
    0.73562467274118437111E+00
    0.56726420589464943145E+00
    0.50484826280502859142E+00
    0.52018794736172224713E+00
    0.53039897391314161368E+00
    0.52965737229434495248E+00
    0.51050826284900219232E+00
    0.50570749598737330111E+00
    0.53970832859112272128E+00
    0.73092660493426819812E+00
    0.77603770272013705700E+00
    0.75420982530996805160E+00
    0.69007385677291677162E+00
    0.59405824635469450801E+00
    0.52278819098092832451E+00
    0.52213512426605124261E+00
