# vtk DataFile Version 3.0
LAPLACIEN  2D
ASCII
DATASET UNSTRUCTURED_GRID
 POINTS         391  float
  0.50371505999999999       0.50367786999999997        0.0000000000000000     
  0.29013556000000001       0.29014535000000002        0.0000000000000000     
  0.70165584999999997       0.71206597999999999        0.0000000000000000     
  0.70304188999999995       0.30176619999999998        0.0000000000000000     
  0.30920671999999999       0.71149227999999998        0.0000000000000000     
  0.79044983999999996       0.49884783999999999        0.0000000000000000     
  0.49102621000000002       0.20968644000000000        0.0000000000000000     
  0.49912957000000002       0.77208717000000004        0.0000000000000000     
  0.21724072999999999       0.48989389000000000        0.0000000000000000     
  0.83255933999999998       0.83046598000000005        0.0000000000000000     
  0.16646774000000000       0.17015694000000001        0.0000000000000000     
  0.83054514999999995       0.16736480000000001        0.0000000000000000     
  0.16953130999999999       0.83265739000000005        0.0000000000000000     
  0.42166445000000002       0.36345201999999999        0.0000000000000000     
  0.64462200999999997       0.56347807999999999        0.0000000000000000     
  0.35324633999999999       0.56311191000000005        0.0000000000000000     
  0.65456411000000003       0.84856860999999995        0.0000000000000000     
  0.35141477999999998       0.15563974000000000        0.0000000000000000     
  0.15290967000000000       0.35206625000000003        0.0000000000000000     
  0.82942241000000005       0.34936866000000000        0.0000000000000000     
  0.84390527000000004       0.64441694999999999        0.0000000000000000     
  0.63699174999999997       0.14284276000000001        0.0000000000000000     
  0.15620682999999999       0.64648446999999998        0.0000000000000000     
  0.36426062999999997       0.85756310999999996        0.0000000000000000     
  0.63489340999999999       0.40519052000000000        0.0000000000000000     
  0.52518872999999999       0.65957078000000002        0.0000000000000000     
  0.32158959999999998       0.42298103999999997        0.0000000000000000     
  0.58861710000000000       0.31711036999999997        0.0000000000000000     
  0.42078418000000001       0.69497151999999995        0.0000000000000000     
  0.48608786999999998       0.89334152000000000        0.0000000000000000     
   9.7084320000000002E-002  0.50000000000000000        0.0000000000000000     
  0.90291568000000000       0.50000000000000000        0.0000000000000000     
  0.51392453000000005       0.10668648999999999        0.0000000000000000     
  0.59792566999999996       0.73122754000000001        0.0000000000000000     
  0.74510058999999995       0.41124730999999998        0.0000000000000000     
  0.73212551999999997       0.90191560000000004        0.0000000000000000     
   9.7784830000000003E-002  0.26957329000000002        0.0000000000000000     
  0.26711221000000002        9.8671499999999995E-002   0.0000000000000000     
  0.90191560000000004       0.26787448000000003        0.0000000000000000     
  0.90118569000000004       0.73039821000000005        0.0000000000000000     
  0.73122947000000005        9.8017859999999998E-002   0.0000000000000000     
   9.8084400000000002E-002  0.73212551999999997        0.0000000000000000     
  0.26957329000000002       0.90221516999999996        0.0000000000000000     
  0.39283522999999998       0.25360379000000000        0.0000000000000000     
  0.74480864000000002       0.60495284999999999        0.0000000000000000     
  0.25505132000000003       0.60593640999999998        0.0000000000000000     
  0.52159297999999998       0.40671636000000000        0.0000000000000000     
  0.40768852000000000       0.47699891000000000        0.0000000000000000     
   9.1467049999999994E-002   9.1876959999999994E-002   0.0000000000000000     
  0.90842484999999995       0.90819225000000003        0.0000000000000000     
  0.90820104999999995        9.1566729999999999E-002   0.0000000000000000     
   9.1807449999999999E-002  0.90843574000000005        0.0000000000000000     
  0.27098960000000000       0.20527094000000001        0.0000000000000000     
  0.73457293999999995       0.79835387000000002        0.0000000000000000     
  0.79817773000000003       0.25713470999999999        0.0000000000000000     
  0.20747797000000001       0.72863946000000002        0.0000000000000000     
  0.20175195000000001       0.27583914999999998        0.0000000000000000     
  0.79603889000000005       0.72159035000000005        0.0000000000000000     
  0.71761666000000002       0.19748431999999999        0.0000000000000000     
  0.28462607000000001       0.80251899999999998        0.0000000000000000     
  0.69134598999999997       0.49261972999999998        0.0000000000000000     
  0.44720578999999999       0.58582935999999997        0.0000000000000000     
  0.24242269999999999       0.37228174000000003        0.0000000000000000     
  0.38265623999999998       0.93072131999999996        0.0000000000000000     
  0.60971754000000000       0.91988369000000003        0.0000000000000000     
   7.9163609999999995E-002  0.60979116000000000        0.0000000000000000     
  0.92010649000000000       0.61081183999999999        0.0000000000000000     
  0.61954008999999999        7.1530830000000004E-002   0.0000000000000000     
  0.91882012999999996       0.38917363999999999        0.0000000000000000     
  0.39086346000000000        8.0652249999999995E-002   0.0000000000000000     
   7.9183480000000001E-002  0.38966213000000000        0.0000000000000000     
  0.59114111999999996       0.49294315000000000        0.0000000000000000     
  0.63337980999999999       0.64485914000000000        0.0000000000000000     
  0.50012352000000004       0.29676539000000002        0.0000000000000000     
  0.82552601000000003       0.92753492000000004        0.0000000000000000     
  0.92774772999999999       0.82498556999999995        0.0000000000000000     
   7.1970870000000006E-002  0.17510291000000000        0.0000000000000000     
  0.17422821999999999        7.2635640000000001E-002   0.0000000000000000     
  0.82510813000000005        7.2134840000000006E-002   0.0000000000000000     
  0.92754665000000003       0.17446275999999999        0.0000000000000000     
  0.17501022999999999       0.92789951999999998        0.0000000000000000     
   7.2464680000000004E-002  0.82554053000000005        0.0000000000000000     
  0.30731587999999999       0.50885354999999999        0.0000000000000000     
  0.59033407999999998       0.22171178999999999        0.0000000000000000     
  0.40109191999999999       0.78725542000000004        0.0000000000000000     
  0.35420917000000002       0.63754104000000000        0.0000000000000000     
  0.15983976999999999       0.56665573000000002        0.0000000000000000     
  0.84108459999999996       0.56757886999999996        0.0000000000000000     
  0.83902096000000004       0.43344338999999998        0.0000000000000000     
  0.43230028999999998       0.16004268999999999        0.0000000000000000     
  0.57536027999999995       0.83041363999999995        0.0000000000000000     
  0.15771898000000001       0.42747892999999998        0.0000000000000000     
  0.34021692999999997       0.34221559000000001        0.0000000000000000     
  0.56002271999999997       0.57501117999999996        0.0000000000000000     
  0.65344329000000001       0.78147597999999996        0.0000000000000000     
   0.0000000000000000        0.0000000000000000        0.0000000000000000     
   1.0000000000000000        0.0000000000000000        0.0000000000000000     
   1.0000000000000000        1.0000000000000000        0.0000000000000000     
   0.0000000000000000        1.0000000000000000        0.0000000000000000     
  0.11111111000000000        0.0000000000000000        0.0000000000000000     
  0.22222222000000000        0.0000000000000000        0.0000000000000000     
  0.33333332999999998        0.0000000000000000        0.0000000000000000     
  0.44444444000000000        0.0000000000000000        0.0000000000000000     
  0.55555555999999995        0.0000000000000000        0.0000000000000000     
  0.66666667000000002        0.0000000000000000        0.0000000000000000     
  0.77777777999999997        0.0000000000000000        0.0000000000000000     
  0.88888889000000004        0.0000000000000000        0.0000000000000000     
   1.0000000000000000       0.11111111000000000        0.0000000000000000     
   1.0000000000000000       0.22222222000000000        0.0000000000000000     
   1.0000000000000000       0.33333332999999998        0.0000000000000000     
   1.0000000000000000       0.44444444000000000        0.0000000000000000     
   1.0000000000000000       0.55555555999999995        0.0000000000000000     
   1.0000000000000000       0.66666667000000002        0.0000000000000000     
   1.0000000000000000       0.77777777999999997        0.0000000000000000     
   1.0000000000000000       0.88888889000000004        0.0000000000000000     
  0.88888889000000004        1.0000000000000000        0.0000000000000000     
  0.77777777999999997        1.0000000000000000        0.0000000000000000     
  0.66666667000000002        1.0000000000000000        0.0000000000000000     
  0.55555555999999995        1.0000000000000000        0.0000000000000000     
  0.44444444000000000        1.0000000000000000        0.0000000000000000     
  0.33333332999999998        1.0000000000000000        0.0000000000000000     
  0.22222222000000000        1.0000000000000000        0.0000000000000000     
  0.11111111000000000        1.0000000000000000        0.0000000000000000     
   0.0000000000000000       0.11111111000000000        0.0000000000000000     
   0.0000000000000000       0.22222222000000000        0.0000000000000000     
[...]
 CELL_DATA         354
 SCALARS C float
 LOOKUP_TABLE default
    0.74256313087399972162E+00
    0.11471940662888218121E+01
    0.51938444338113665122E+00
    0.59888057586875786953E+00
    0.85995061181012211193E+00
    0.97492270923358304024E+00
    0.12363091661854870296E+01
    0.11079539497789565594E+01
    0.13430320350055167111E+01
    0.14129531222893303433E+01
    0.14770971449359397987E+01
    0.14632975620148791496E+01
    0.14867782935080038342E+01
    0.14906574873713702711E+01
    0.14830714481716678055E+01
    0.14874928467140475785E+01
    0.14545742993506953766E+01
    0.14091326424274375206E+01
    0.12603985394539101161E+01
    0.13339699801031170701E+01
    0.12175850807589909675E+01
    0.12549001281594103219E+01
    0.13382624090522543536E+01
    0.12992993156250207676E+01
    0.13475999893535817176E+01
    0.13274879820254290586E+01
    0.12580540285988983662E+01
    0.12961900754008679471E+01
    0.11854313178949711372E+01
    0.10803608965134319231E+01
    0.85784795056909701749E+00
    0.97264537867536682292E+00
    0.74682608259512583970E+00
    0.63490009793351331879E+00
    0.52209233816527456096E+00
    0.56619820384303576333E+00
    0.51320862016660928617E+00
    0.52080603743781783699E+00
    0.56549001380014429774E+00
    0.53173345123796933454E+00
    0.58018220485432792088E+00
    0.58338793845110470393E+00
    0.60216068453972582120E+00
    0.58863331797662354905E+00
    0.59077863937820151996E+00
    0.54846442568395159523E+00
    0.52189208048242452520E+00
    0.53280213065181558640E+00
    0.51709951018748012697E+00
    0.50781283658990039598E+00
    0.54727862234407076425E+00
    0.52842909151062078532E+00
    0.78359438530457636851E+00
    0.80695579014106000315E+00
    0.88961965695588274272E+00
    0.84139083310073481403E+00
    0.89812710777719484412E+00
    0.86859370456691653573E+00
    0.81619319215783359134E+00
    0.84279274949312510401E+00
    0.76643963022736694146E+00
    0.68655196188193745588E+00
    0.57233210113332444458E+00
    0.62940815003196259880E+00
    0.53718453583326053469E+00
    0.50593438684974045838E+00
    0.53690719116165286362E+00
    0.51794370214748608472E+00
    0.14362437907182541430E+01
    0.14890458870945648684E+01
    0.14862995460292864891E+01
    0.14736186711094667601E+01
    0.14936401657225490958E+01
    0.14870639166680095222E+01
    0.14674328270544672037E+01
    0.14246374157089660706E+01
    0.14525491430081238775E+01
    0.14914628292628853146E+01
    0.12189036660525509603E+01
    0.13100732796526917134E+01
    0.10741600386728704652E+01
    0.11585623705427567920E+01
    0.13179452052812528073E+01
    0.11212507717054358558E+01
    0.14457331359716754093E+01
    0.13226845443089869647E+01
    0.11986201635962396850E+01
    0.14153552650696930026E+01
    0.14367485537164301768E+01
    0.13842675019687029625E+01
    0.12651182400969585018E+01
    0.11265395276450556050E+01
    0.10888777822189608102E+01
    0.91829921793502555794E+00
    0.88525611873447562772E+00
    0.98649472397022086589E+00
    0.11634464981966747832E+01
    0.14235840252644935688E+01
    0.14889386065663119396E+01
    0.14543276275975181022E+01
    0.14908608442210458112E+01
    0.14215165397256095403E+01
    0.14804596503008098374E+01
    0.14111856564485751875E+01
    0.14052179423601052211E+01
    0.12981111078168416917E+01
    0.12987417972872610239E+01
    0.14289385852187206360E+01
    0.12290067091430458834E+01
    0.11539170601839801034E+01
    0.89094039377695843918E+00
    0.11437145439752844922E+01
    0.99890031557156366837E+00
    0.98209468743492323028E+00
    0.13961026117004204927E+01
    0.11026088007352616849E+01
    0.12239048626482134097E+01
    0.13501722297703735443E+01
    0.13500474300232672142E+01
    0.11284177412483615832E+01
    0.12222064210192957745E+01
    0.70353267021085019728E+00
    0.81975809018691270236E+00
    0.62318546589037759897E+00
    0.84060361304535602400E+00
    0.91073256375920741412E+00
    0.63402990313236284869E+00
    0.68779741965825202943E+00
    0.11354446176057255702E+01
    0.12897817503313149246E+01
    0.10503261467343982805E+01
    0.13398280453076927277E+01
    0.12784399149579726007E+01
    0.10544557284411759657E+01
    0.11572005398388587327E+01
    0.14704298633971719656E+01
    0.14932030398445292896E+01
    0.14137816958886639807E+01
    0.14921890920714810935E+01
    0.14796197992597859283E+01
    0.14598877043352653793E+01
    0.14292358657247228315E+01
    0.58644336076330350060E+00
    0.56164745165939633509E+00
    0.51887268218159887656E+00
    0.67090381562784862091E+00
    0.65259492617480563403E+00
    0.52218044804187946362E+00
    0.52821818264796105424E+00
    0.14797681094760977150E+01
    0.14418925974695881997E+01
    0.13889573755297022206E+01
    0.14697397494286761344E+01
    0.13489329590311369689E+01
    0.14766866536520328879E+01
    0.14630971562799821584E+01
    0.14935345869710821010E+01
    0.14893953202237244504E+01
    0.14587207178848735634E+01
    0.14919000049435775512E+01
    0.13051289468450690823E+01
    0.14620179990059882780E+01
    0.14350605845867876464E+01
    0.14089863993330267178E+01
    0.13457124173413368418E+01
    0.75250924413956565839E+00
    0.87744429014185143512E+00
    0.75037600729968889635E+00
    0.86617513227705356105E+00
    0.93618784636311047631E+00
    0.14440987075574238663E+01
    0.14881819003137000124E+01
    0.14740667834810836645E+01
    0.14868812776587929658E+01
    0.14910720963237731329E+01
    0.11422279397588195327E+01
    0.12771093539215354618E+01
    0.13110978422860060100E+01
    0.11002482725535815966E+01
    0.12007526127007885908E+01
    0.14839054584676045767E+01
    0.14788514897745139720E+01
    0.14907068913984189429E+01
    0.14630269462988159113E+01
    0.14903282590510280592E+01
    0.10564431356826000652E+01
    0.12996977062543277892E+01
    0.11491480044660056237E+01
    0.11591855914564679342E+01
    0.12826649920604238364E+01
    0.14431950463361942205E+01
    0.14718389040840749171E+01
    0.14274889367212975078E+01
    0.14712781456053738438E+01
    0.13577828800337161663E+01
    0.73023268179956335455E+00
    0.99309884026325534467E+00
    0.83223005949527162350E+00
    0.79431663864704504796E+00
    0.93471629487753760124E+00
    0.71683491680436373095E+00
    0.63303515454106484839E+00
    0.73181301614004934386E+00
    0.63979360671259410953E+00
    0.81045163322028257458E+00
    0.12141353440038358258E+01
    0.14089964291019343445E+01
    0.13227768131296238074E+01
    0.14304539101483264574E+01
    0.14066624045014679556E+01
    0.13038616236774414059E+01
    0.12911387489755705715E+01
    0.14173893298339361735E+01
    0.13931695305488815961E+01
    0.14434297861891325354E+01
    0.14919944258283750482E+01
    0.14498037391684133190E+01
    0.14503769283928369394E+01
    0.14919714407536930345E+01
    0.12046481773683632710E+01
    0.11437830491442422254E+01
    0.11374538980643329467E+01
    0.13493686225869332418E+01
    0.10809453888508002706E+01
    0.12571062354365654112E+01
    0.63188936773000603520E+00
    0.68328147370032954466E+00
    0.83395303484274052597E+00
    0.81342407472819722170E+00
    0.82843595346439824478E+00
    0.95224043257399992868E+00
    0.97629256331751868014E+00
    0.10698724066289186929E+01
    0.12322367702647254450E+01
    0.13736647523393237247E+01
    0.13494553157572570790E+01
    0.14265938774264586009E+01
    0.14859501893904605296E+01
    0.14887160770571497004E+01
    0.13682654011910608816E+01
    0.14742019388509239874E+01
    0.13126999780004096063E+01
    0.10593710812662506804E+01
    0.11170982548479693186E+01
    0.14776157009233163997E+01
    0.14891996325270642210E+01
    0.79137315256944285036E+00
    0.65730513070557627930E+00
    0.60374838424289534178E+00
    0.12069412534188552755E+01
    0.10113606175859783942E+01
    0.98994484691922024489E+00
    0.14046848171051729004E+01
    0.14306782963632895811E+01
    0.12277047524332187489E+01
    0.14832850496832377107E+01
    0.14258603974342556331E+01
    0.14061107032447699439E+01
    0.98341367310449145922E+00
    0.10082776834892535067E+01
    0.74467094239481490536E+00
    0.14761152880346064542E+01
    0.14954282462723478275E+01
    0.14696634486484665416E+01
    0.69440734609482224204E+00
    0.66939484821357808642E+00
    0.54163108464649245555E+00
    0.64359669466311564268E+00
    0.56701321244047697689E+00
    0.52009700555102345021E+00
    0.14780774200773030280E+01
    0.13642482974263083761E+01
    0.14681779834418926534E+01
    0.14844685540289592751E+01
    0.12494130455613206010E+01
    0.14711195922782915879E+01
    0.14079736278177263920E+01
    0.13840448415808583871E+01
    0.97455430479067950422E+00
    0.13074810675959858131E+01
    0.12273507469761968380E+01
    0.10865568857697875949E+01
    0.14392155514815290207E+01
    0.14079399962564316251E+01
    0.12738086716277214894E+01
    0.14834044937776618145E+01
    0.14660280480145497783E+01
    0.92054498534245254859E+00
    0.10097645196107760679E+01
    0.55045917716854242396E+00
    0.58541833955235489384E+00
    0.13800071740303623269E+01
    0.13452682326847023031E+01
    0.50679637837229585262E+00
    0.50647100062230110407E+00
    0.13959039249666997939E+01
    0.10038145774765836471E+01
    0.99485205508118146334E+00
    0.14645901856123950679E+01
    0.77311884887010151601E+00
    0.13809474920929729613E+01
    0.13402914089286079857E+01
    0.85077743320104870506E+00
    0.14747274590899643876E+01
    0.13684969766233814337E+01
    0.14772290343272604929E+01
    0.12950463399714264856E+01
    0.14701264121132822105E+01
    0.77767920816926872085E+00
    0.87461340996390724012E+00
    0.12503109649468613362E+01
    0.14478770476334750228E+01
    0.14895960439878677128E+01
    0.10789094774612326688E+01
    0.14889494868729338251E+01
    0.14554920138664892981E+01
    0.12016560003397800394E+01
    0.98308991550460578246E+00
    0.72145795333016105033E+00
    0.65554574427190814845E+00
    0.11036348034024185960E+01
    0.10631368620214731724E+01
    0.51882509687342559523E+00
    0.51700712681404814575E+00
    0.63763330800855178015E+00
    0.62588136738399191561E+00
    0.97749268342004258514E+00
    0.12293330675281173292E+01
    0.13941600308733450575E+01
    0.14661892849394391192E+01
    0.14743376130148420078E+01
    0.14361425466965247466E+01
    0.13138326725120290650E+01
    0.11913330743982588622E+01
    0.12527036870341949903E+01
    0.12251283891185642538E+01
    0.11231727570043532616E+01
    0.94246558791455170567E+00
    0.73562885229818419930E+00
    0.56726610937420707259E+00
    0.50484965119230007513E+00
    0.52019073468197596366E+00
    0.53040212107941298036E+00
    0.52966063872964885828E+00
    0.51051042849043826166E+00
    0.50570864787797475959E+00
    0.53970787463659142258E+00
    0.73093128753750713500E+00
    0.77604321821913491153E+00
    0.75421517135818583188E+00
    0.69007868927609183896E+00
    0.59406193416179964295E+00
    0.52279077070337665045E+00
    0.52213543896499325925E+00
