# vtk DataFile Version 3.0
LAPLACIEN  2D
ASCII
DATASET UNSTRUCTURED_GRID
 POINTS         391  float
  0.50371505999999999       0.50367786999999997        0.0000000000000000     
  0.29013556000000001       0.29014535000000002        0.0000000000000000     
  0.70165584999999997       0.71206597999999999        0.0000000000000000     
  0.70304188999999995       0.30176619999999998        0.0000000000000000     
  0.30920671999999999       0.71149227999999998        0.0000000000000000     
  0.79044983999999996       0.49884783999999999        0.0000000000000000     
  0.49102621000000002       0.20968644000000000        0.0000000000000000     
  0.49912957000000002       0.77208717000000004        0.0000000000000000     
  0.21724072999999999       0.48989389000000000        0.0000000000000000     
  0.83255933999999998       0.83046598000000005        0.0000000000000000     
  0.16646774000000000       0.17015694000000001        0.0000000000000000     
  0.83054514999999995       0.16736480000000001        0.0000000000000000     
  0.16953130999999999       0.83265739000000005        0.0000000000000000     
  0.42166445000000002       0.36345201999999999        0.0000000000000000     
  0.64462200999999997       0.56347807999999999        0.0000000000000000     
  0.35324633999999999       0.56311191000000005        0.0000000000000000     
  0.65456411000000003       0.84856860999999995        0.0000000000000000     
  0.35141477999999998       0.15563974000000000        0.0000000000000000     
  0.15290967000000000       0.35206625000000003        0.0000000000000000     
  0.82942241000000005       0.34936866000000000        0.0000000000000000     
  0.84390527000000004       0.64441694999999999        0.0000000000000000     
  0.63699174999999997       0.14284276000000001        0.0000000000000000     
  0.15620682999999999       0.64648446999999998        0.0000000000000000     
  0.36426062999999997       0.85756310999999996        0.0000000000000000     
  0.63489340999999999       0.40519052000000000        0.0000000000000000     
  0.52518872999999999       0.65957078000000002        0.0000000000000000     
  0.32158959999999998       0.42298103999999997        0.0000000000000000     
  0.58861710000000000       0.31711036999999997        0.0000000000000000     
  0.42078418000000001       0.69497151999999995        0.0000000000000000     
  0.48608786999999998       0.89334152000000000        0.0000000000000000     
   9.7084320000000002E-002  0.50000000000000000        0.0000000000000000     
  0.90291568000000000       0.50000000000000000        0.0000000000000000     
  0.51392453000000005       0.10668648999999999        0.0000000000000000     
  0.59792566999999996       0.73122754000000001        0.0000000000000000     
  0.74510058999999995       0.41124730999999998        0.0000000000000000     
  0.73212551999999997       0.90191560000000004        0.0000000000000000     
   9.7784830000000003E-002  0.26957329000000002        0.0000000000000000     
  0.26711221000000002        9.8671499999999995E-002   0.0000000000000000     
  0.90191560000000004       0.26787448000000003        0.0000000000000000     
  0.90118569000000004       0.73039821000000005        0.0000000000000000     
  0.73122947000000005        9.8017859999999998E-002   0.0000000000000000     
   9.8084400000000002E-002  0.73212551999999997        0.0000000000000000     
  0.26957329000000002       0.90221516999999996        0.0000000000000000     
  0.39283522999999998       0.25360379000000000        0.0000000000000000     
  0.74480864000000002       0.60495284999999999        0.0000000000000000     
  0.25505132000000003       0.60593640999999998        0.0000000000000000     
  0.52159297999999998       0.40671636000000000        0.0000000000000000     
  0.40768852000000000       0.47699891000000000        0.0000000000000000     
   9.1467049999999994E-002   9.1876959999999994E-002   0.0000000000000000     
  0.90842484999999995       0.90819225000000003        0.0000000000000000     
  0.90820104999999995        9.1566729999999999E-002   0.0000000000000000     
   9.1807449999999999E-002  0.90843574000000005        0.0000000000000000     
  0.27098960000000000       0.20527094000000001        0.0000000000000000     
  0.73457293999999995       0.79835387000000002        0.0000000000000000     
  0.79817773000000003       0.25713470999999999        0.0000000000000000     
  0.20747797000000001       0.72863946000000002        0.0000000000000000     
  0.20175195000000001       0.27583914999999998        0.0000000000000000     
  0.79603889000000005       0.72159035000000005        0.0000000000000000     
  0.71761666000000002       0.19748431999999999        0.0000000000000000     
  0.28462607000000001       0.80251899999999998        0.0000000000000000     
  0.69134598999999997       0.49261972999999998        0.0000000000000000     
  0.44720578999999999       0.58582935999999997        0.0000000000000000     
  0.24242269999999999       0.37228174000000003        0.0000000000000000     
  0.38265623999999998       0.93072131999999996        0.0000000000000000     
  0.60971754000000000       0.91988369000000003        0.0000000000000000     
   7.9163609999999995E-002  0.60979116000000000        0.0000000000000000     
  0.92010649000000000       0.61081183999999999        0.0000000000000000     
  0.61954008999999999        7.1530830000000004E-002   0.0000000000000000     
  0.91882012999999996       0.38917363999999999        0.0000000000000000     
  0.39086346000000000        8.0652249999999995E-002   0.0000000000000000     
   7.9183480000000001E-002  0.38966213000000000        0.0000000000000000     
  0.59114111999999996       0.49294315000000000        0.0000000000000000     
  0.63337980999999999       0.64485914000000000        0.0000000000000000     
  0.50012352000000004       0.29676539000000002        0.0000000000000000     
  0.82552601000000003       0.92753492000000004        0.0000000000000000     
  0.92774772999999999       0.82498556999999995        0.0000000000000000     
   7.1970870000000006E-002  0.17510291000000000        0.0000000000000000     
  0.17422821999999999        7.2635640000000001E-002   0.0000000000000000     
  0.82510813000000005        7.2134840000000006E-002   0.0000000000000000     
  0.92754665000000003       0.17446275999999999        0.0000000000000000     
  0.17501022999999999       0.92789951999999998        0.0000000000000000     
   7.2464680000000004E-002  0.82554053000000005        0.0000000000000000     
  0.30731587999999999       0.50885354999999999        0.0000000000000000     
  0.59033407999999998       0.22171178999999999        0.0000000000000000     
  0.40109191999999999       0.78725542000000004        0.0000000000000000     
  0.35420917000000002       0.63754104000000000        0.0000000000000000     
  0.15983976999999999       0.56665573000000002        0.0000000000000000     
  0.84108459999999996       0.56757886999999996        0.0000000000000000     
  0.83902096000000004       0.43344338999999998        0.0000000000000000     
  0.43230028999999998       0.16004268999999999        0.0000000000000000     
  0.57536027999999995       0.83041363999999995        0.0000000000000000     
  0.15771898000000001       0.42747892999999998        0.0000000000000000     
  0.34021692999999997       0.34221559000000001        0.0000000000000000     
  0.56002271999999997       0.57501117999999996        0.0000000000000000     
  0.65344329000000001       0.78147597999999996        0.0000000000000000     
   0.0000000000000000        0.0000000000000000        0.0000000000000000     
   1.0000000000000000        0.0000000000000000        0.0000000000000000     
   1.0000000000000000        1.0000000000000000        0.0000000000000000     
   0.0000000000000000        1.0000000000000000        0.0000000000000000     
  0.11111111000000000        0.0000000000000000        0.0000000000000000     
  0.22222222000000000        0.0000000000000000        0.0000000000000000     
  0.33333332999999998        0.0000000000000000        0.0000000000000000     
  0.44444444000000000        0.0000000000000000        0.0000000000000000     
  0.55555555999999995        0.0000000000000000        0.0000000000000000     
  0.66666667000000002        0.0000000000000000        0.0000000000000000     
  0.77777777999999997        0.0000000000000000        0.0000000000000000     
  0.88888889000000004        0.0000000000000000        0.0000000000000000     
   1.0000000000000000       0.11111111000000000        0.0000000000000000     
   1.0000000000000000       0.22222222000000000        0.0000000000000000     
   1.0000000000000000       0.33333332999999998        0.0000000000000000     
   1.0000000000000000       0.44444444000000000        0.0000000000000000     
   1.0000000000000000       0.55555555999999995        0.0000000000000000     
   1.0000000000000000       0.66666667000000002        0.0000000000000000     
   1.0000000000000000       0.77777777999999997        0.0000000000000000     
   1.0000000000000000       0.88888889000000004        0.0000000000000000     
  0.88888889000000004        1.0000000000000000        0.0000000000000000     
  0.77777777999999997        1.0000000000000000        0.0000000000000000     
  0.66666667000000002        1.0000000000000000        0.0000000000000000     
  0.55555555999999995        1.0000000000000000        0.0000000000000000     
  0.44444444000000000        1.0000000000000000        0.0000000000000000     
  0.33333332999999998        1.0000000000000000        0.0000000000000000     
  0.22222222000000000        1.0000000000000000        0.0000000000000000     
  0.11111111000000000        1.0000000000000000        0.0000000000000000     
   0.0000000000000000       0.11111111000000000        0.0000000000000000     
   0.0000000000000000       0.22222222000000000        0.0000000000000000     
[...]
 CELL_DATA         354
 SCALARS C float
 LOOKUP_TABLE default
    0.74256421891225043996E+00
    0.11471950940091524274E+01
    0.51938467182461478533E+00
    0.59888011745594460500E+00
    0.85995074987107300579E+00
    0.97492304197711721070E+00
    0.12363097522644403981E+01
    0.11079544674882282340E+01
    0.13430322612058100962E+01
    0.14129530464739656903E+01
    0.14770969987283704139E+01
    0.14632974782832746108E+01
    0.14867780402206256518E+01
    0.14906571883092656350E+01
    0.14830712010041535720E+01
    0.14874925052964169669E+01
    0.14545743190992512783E+01
    0.14091327864128961878E+01
    0.12603985102618744385E+01
    0.13339699955021175892E+01
    0.12175855907471158091E+01
    0.12549005234730377101E+01
    0.13382629367130460807E+01
    0.12992998501490076180E+01
    0.13476006460036407120E+01
    0.13274885884852825058E+01
    0.12580546053453374178E+01
    0.12961905699766957945E+01
    0.11854322152414857872E+01
    0.10803617726194711945E+01
    0.85784895395513505179E+00
    0.97264617845578493771E+00
    0.74682724908135855735E+00
    0.63490090305138324744E+00
    0.52209280293586846078E+00
    0.56619882765189011309E+00
    0.51320892663271344691E+00
    0.52080652884206934949E+00
    0.56549080877722845972E+00
    0.53173402420803395074E+00
    0.58018332402750072418E+00
    0.58338900144879446419E+00
    0.60216188045375307336E+00
    0.58863438076100882412E+00
    0.59077958747757575164E+00
    0.54846520861134695490E+00
    0.52189283537200792384E+00
    0.53280301679970942796E+00
    0.51709998814306523673E+00
    0.50781303773287678194E+00
    0.54727859174711468437E+00
    0.52842929847926567444E+00
    0.78359529769109115271E+00
    0.80695661417958730599E+00
    0.88962078487648732494E+00
    0.84139186006460797707E+00
    0.89812860183636111788E+00
    0.86859505930461144985E+00
    0.81619433564546850501E+00
    0.84279386190184091276E+00
    0.76644089950267879630E+00
    0.68655303717665516761E+00
    0.57233316937718781148E+00
    0.62940921644703462512E+00
    0.53718532268419849629E+00
    0.50593479032239963011E+00
    0.53690738143773719671E+00
    0.51794406955573291107E+00
    0.14362433088296544526E+01
    0.14890452154928337514E+01
    0.14862987516905488139E+01
    0.14736181143675648464E+01
    0.14936394937931156690E+01
    0.14870634217960962964E+01
    0.14674321584347449487E+01
    0.14246365064740453832E+01
    0.14525483720288765443E+01
    0.14914621501529246039E+01
    0.12189036689089915999E+01
    0.13100730287271404872E+01
    0.10741597180957422886E+01
    0.11585621433509314393E+01
    0.13179444659040642218E+01
    0.11212511634882134093E+01
    0.14457327856454558201E+01
    0.13226850866591770561E+01
    0.11986232346053879994E+01
    0.14153548201461265688E+01
    0.14367482227853147769E+01
    0.13842668609681314518E+01
    0.12651196670073807660E+01
    0.11265384560649731593E+01
    0.10888770901732358620E+01
    0.91829901618725284784E+00
    0.88525611567302275873E+00
    0.98649444495015625733E+00
    0.11634452239595431955E+01
    0.14235833499484054077E+01
    0.14889380480314129418E+01
    0.14543269602948041275E+01
    0.14908601335440374580E+01
    0.14215161289610196427E+01
    0.14804589038361890552E+01
    0.14111856313148267716E+01
    0.14052180284390134446E+01
    0.12981111322133851438E+01
    0.12987417125819351593E+01
    0.14289380241400762017E+01
    0.12290060632304138366E+01
    0.11539167848303177877E+01
    0.89093959926026178309E+00
    0.11437142965520181725E+01
    0.99889970523592652718E+00
    0.98209458458206633225E+00
    0.13961016795841927340E+01
    0.11026083792748213597E+01
    0.12239043318414672967E+01
    0.13501718559974631440E+01
    0.13500464236509182037E+01
    0.11284181337534362477E+01
    0.12222060725409402693E+01
    0.70353307563592304419E+00
    0.81975840720056469824E+00
    0.62318592419691132278E+00
    0.84060320264879839769E+00
    0.91073216978146243061E+00
    0.63403089624102215716E+00
    0.68779820539172420446E+00
    0.11354445176359790892E+01
    0.12897813481722790740E+01
    0.10503261709752902409E+01
    0.13398270226764485979E+01
    0.12784390209364016044E+01
    0.10544562121984006886E+01
    0.11572006094226214845E+01
    0.14704291761979695341E+01
    0.14932024016147318335E+01
    0.14137812679268002558E+01
    0.14921883270413975886E+01
    0.14796192783283972361E+01
    0.14598870707539544078E+01
    0.14292355467022355153E+01
    0.58644406518943026363E+00
    0.56164823663363616646E+00
    0.51887320129443403882E+00
    0.67090387889449587533E+00
    0.65259512989049262011E+00
    0.52218130386344441263E+00
    0.52821909752681472927E+00
    0.14797675558915390770E+01
    0.14418921740978714041E+01
    0.13889572449423983613E+01
    0.14697393094527795299E+01
    0.13489330530586132184E+01
    0.14766859834304935095E+01
    0.14630961970773410652E+01
    0.14935338574351564311E+01
    0.14893947117714092521E+01
    0.14587197049947369099E+01
    0.14918993886093330214E+01
    0.13051278224531090988E+01
    0.14620176711124186486E+01
    0.14350599716668648309E+01
    0.14089856421897342109E+01
    0.13457116237637276601E+01
    0.75250870625094656852E+00
    0.87744389324312233036E+00
    0.75037531063915752227E+00
    0.86617526424229951409E+00
    0.93618774690967099250E+00
    0.14440976215695300322E+01
    0.14881812864479071479E+01
    0.14740660339236772991E+01
    0.14868803335026505863E+01
    0.14910714596295830958E+01
    0.11422267791321005781E+01
    0.12771088718240766191E+01
    0.13110977085864192748E+01
    0.11002470643583586174E+01
    0.12007522996288040318E+01
    0.14839048619246224536E+01
    0.14788505315202644663E+01
    0.14907062677325380040E+01
    0.14630260118780256118E+01
    0.14903275636131545490E+01
    0.10564419769223303280E+01
    0.12996974078746825754E+01
    0.11491476328218739322E+01
    0.11591844885517688102E+01
    0.12826645514091938871E+01
    0.14431944833855698818E+01
    0.14718384666306196795E+01
    0.14274885052578429878E+01
    0.14712771681619232211E+01
    0.13577830327020632417E+01
    0.73023217157873498984E+00
    0.99309915440985729873E+00
    0.83223032784713213417E+00
    0.79431607711328877652E+00
    0.93471632817448879749E+00
    0.71683596120427639509E+00
    0.63303518358402965927E+00
    0.73181355621578314530E+00
    0.63979440225058237246E+00
    0.81045225052592217985E+00
    0.12141371983224598097E+01
    0.14089959038942350134E+01
    0.13227772353438052022E+01
    0.14304536313946334403E+01
    0.14066620803335949663E+01
    0.13038608714929305066E+01
    0.12911382464931244751E+01
    0.14173885158682406615E+01
    0.13931688186727002599E+01
    0.14434289477011379432E+01
    0.14919936947795160442E+01
    0.14498027682378724634E+01
    0.14503762461810358886E+01
    0.14919708988353590495E+01
    0.12046503319975461199E+01
    0.11437866448512870043E+01
    0.11374582299145843400E+01
    0.13493681510976969218E+01
    0.10809450598916638953E+01
    0.12571055718671719781E+01
    0.63189048961409155503E+00
    0.68328162064552933064E+00
    0.83395258135234484609E+00
    0.81342365919146519815E+00
    0.82843578890357461031E+00
    0.95223988992497066164E+00
    0.97629235901645083917E+00
    0.10698712501003664332E+01
    0.12322361425362258203E+01
    0.13736638035927706269E+01
    0.13494545692296213701E+01
    0.14265927605414641111E+01
    0.14859490836051159057E+01
    0.14887154803575999296E+01
    0.13682660197266887092E+01
    0.14742013372334077381E+01
    0.13126993149317578435E+01
    0.10593708229418381528E+01
    0.11170983622403523050E+01
    0.14776151317425298970E+01
    0.14891990387884441738E+01
    0.79137287972193515184E+00
    0.65730500721154261345E+00
    0.60374929065031079922E+00
    0.12069404892784922900E+01
    0.10113600071507589107E+01
    0.98994516245806285504E+00
    0.14046837602660071642E+01
    0.14306772455990093285E+01
    0.12277049406108702101E+01
    0.14832841724696526065E+01
    0.14258595807042437897E+01
    0.14061102273442642741E+01
    0.98341303539967406255E+00
    0.10082767751365200315E+01
    0.74467185874979691107E+00
    0.14761147981555962083E+01
    0.14954276172699310088E+01
    0.14696628957655737402E+01
    0.69440735142067910868E+00
    0.66939471448906529005E+00
    0.54163198589423422469E+00
    0.64359694420606561316E+00
    0.56701357130053342548E+00
    0.52009786115836076359E+00
    0.14780769539061795470E+01
    0.13642488615895214110E+01
    0.14681773543220173472E+01
    0.14844677647690767142E+01
    0.12494129935121871533E+01
    0.14711188847138589875E+01
    0.14079727134744584038E+01
    0.13840443243313655941E+01
    0.97455455544847180427E+00
    0.13074796854942938307E+01
    0.12273496851850156375E+01
    0.10865571124004760328E+01
    0.14392152968286189285E+01
    0.14079395118168913648E+01
    0.12738097798839995711E+01
    0.14834038191026579501E+01
    0.14660276238298166618E+01
    0.92054499709752024561E+00
    0.10097643042607518105E+01
    0.55045971506900526204E+00
    0.58541875297177103921E+00
    0.13800065354690045361E+01
    0.13452676918850956511E+01
    0.50679696239043803274E+00
    0.50647159552568044028E+00
    0.13959029716767017426E+01
    0.10038141804883100594E+01
    0.99485161744477434986E+00
    0.14645897325649479548E+01
    0.77311876037785887128E+00
    0.13809469192446086616E+01
    0.13402908307523073717E+01
    0.85077800714121432080E+00
    0.14747269960253384102E+01
    0.13684966279982115900E+01
    0.14772282832305494438E+01
    0.12950465998229718778E+01
    0.14701257316967157873E+01
    0.77767880926567756195E+00
    0.87461297018371142453E+00
    0.12503101428860372568E+01
    0.14478760869649158760E+01
    0.14895954293009725511E+01
    0.10789085686180226453E+01
    0.14889489921787131266E+01
    0.14554911317122245507E+01
    0.12016577466873175073E+01
    0.98308983312518471998E+00
    0.72145848612629615015E+00
    0.65554719828032281814E+00
    0.11036354876169494066E+01
    0.10631381928931764591E+01
    0.51882532370283063194E+00
    0.51700722861003811648E+00
    0.63763273288624955359E+00
    0.62588103470942724194E+00
    0.97749339798332479656E+00
    0.12293339934643938705E+01
    0.13941605331557263003E+01
    0.14661894408137590151E+01
    0.14743377730801852099E+01
    0.14361429041069366797E+01
    0.13138332416644469269E+01
    0.11913343258515429746E+01
    0.12527050121685037176E+01
    0.12251297467444914879E+01
    0.11231741683399618648E+01
    0.94246702164436046978E+00
    0.73563024541937283018E+00
    0.56726674386086628488E+00
    0.50485011398343360156E+00
    0.52019166377035763738E+00
    0.53040317012574100808E+00
    0.52966172751327966761E+00
    0.51051115036663785585E+00
    0.50570903184965421140E+00
    0.53970772334120686864E+00
    0.73093284834202598699E+00
    0.77604505664253076169E+00
    0.75421695332119875754E+00
    0.69008030005030562837E+00
    0.59406316340752574057E+00
    0.52279163059017541570E+00
    0.52213554387802063594E+00
