# vtk DataFile Version 3.0
LAPLACIEN  2D
ASCII
DATASET UNSTRUCTURED_GRID
 POINTS         391  float
  0.50371505999999999       0.50367786999999997        0.0000000000000000     
  0.29013556000000001       0.29014535000000002        0.0000000000000000     
  0.70165584999999997       0.71206597999999999        0.0000000000000000     
  0.70304188999999995       0.30176619999999998        0.0000000000000000     
  0.30920671999999999       0.71149227999999998        0.0000000000000000     
  0.79044983999999996       0.49884783999999999        0.0000000000000000     
  0.49102621000000002       0.20968644000000000        0.0000000000000000     
  0.49912957000000002       0.77208717000000004        0.0000000000000000     
  0.21724072999999999       0.48989389000000000        0.0000000000000000     
  0.83255933999999998       0.83046598000000005        0.0000000000000000     
  0.16646774000000000       0.17015694000000001        0.0000000000000000     
  0.83054514999999995       0.16736480000000001        0.0000000000000000     
  0.16953130999999999       0.83265739000000005        0.0000000000000000     
  0.42166445000000002       0.36345201999999999        0.0000000000000000     
  0.64462200999999997       0.56347807999999999        0.0000000000000000     
  0.35324633999999999       0.56311191000000005        0.0000000000000000     
  0.65456411000000003       0.84856860999999995        0.0000000000000000     
  0.35141477999999998       0.15563974000000000        0.0000000000000000     
  0.15290967000000000       0.35206625000000003        0.0000000000000000     
  0.82942241000000005       0.34936866000000000        0.0000000000000000     
  0.84390527000000004       0.64441694999999999        0.0000000000000000     
  0.63699174999999997       0.14284276000000001        0.0000000000000000     
  0.15620682999999999       0.64648446999999998        0.0000000000000000     
  0.36426062999999997       0.85756310999999996        0.0000000000000000     
  0.63489340999999999       0.40519052000000000        0.0000000000000000     
  0.52518872999999999       0.65957078000000002        0.0000000000000000     
  0.32158959999999998       0.42298103999999997        0.0000000000000000     
  0.58861710000000000       0.31711036999999997        0.0000000000000000     
  0.42078418000000001       0.69497151999999995        0.0000000000000000     
  0.48608786999999998       0.89334152000000000        0.0000000000000000     
   9.7084320000000002E-002  0.50000000000000000        0.0000000000000000     
  0.90291568000000000       0.50000000000000000        0.0000000000000000     
  0.51392453000000005       0.10668648999999999        0.0000000000000000     
  0.59792566999999996       0.73122754000000001        0.0000000000000000     
  0.74510058999999995       0.41124730999999998        0.0000000000000000     
  0.73212551999999997       0.90191560000000004        0.0000000000000000     
   9.7784830000000003E-002  0.26957329000000002        0.0000000000000000     
  0.26711221000000002        9.8671499999999995E-002   0.0000000000000000     
  0.90191560000000004       0.26787448000000003        0.0000000000000000     
  0.90118569000000004       0.73039821000000005        0.0000000000000000     
  0.73122947000000005        9.8017859999999998E-002   0.0000000000000000     
   9.8084400000000002E-002  0.73212551999999997        0.0000000000000000     
  0.26957329000000002       0.90221516999999996        0.0000000000000000     
  0.39283522999999998       0.25360379000000000        0.0000000000000000     
  0.74480864000000002       0.60495284999999999        0.0000000000000000     
  0.25505132000000003       0.60593640999999998        0.0000000000000000     
  0.52159297999999998       0.40671636000000000        0.0000000000000000     
  0.40768852000000000       0.47699891000000000        0.0000000000000000     
   9.1467049999999994E-002   9.1876959999999994E-002   0.0000000000000000     
  0.90842484999999995       0.90819225000000003        0.0000000000000000     
  0.90820104999999995        9.1566729999999999E-002   0.0000000000000000     
   9.1807449999999999E-002  0.90843574000000005        0.0000000000000000     
  0.27098960000000000       0.20527094000000001        0.0000000000000000     
  0.73457293999999995       0.79835387000000002        0.0000000000000000     
  0.79817773000000003       0.25713470999999999        0.0000000000000000     
  0.20747797000000001       0.72863946000000002        0.0000000000000000     
  0.20175195000000001       0.27583914999999998        0.0000000000000000     
  0.79603889000000005       0.72159035000000005        0.0000000000000000     
  0.71761666000000002       0.19748431999999999        0.0000000000000000     
  0.28462607000000001       0.80251899999999998        0.0000000000000000     
  0.69134598999999997       0.49261972999999998        0.0000000000000000     
  0.44720578999999999       0.58582935999999997        0.0000000000000000     
  0.24242269999999999       0.37228174000000003        0.0000000000000000     
  0.38265623999999998       0.93072131999999996        0.0000000000000000     
  0.60971754000000000       0.91988369000000003        0.0000000000000000     
   7.9163609999999995E-002  0.60979116000000000        0.0000000000000000     
  0.92010649000000000       0.61081183999999999        0.0000000000000000     
  0.61954008999999999        7.1530830000000004E-002   0.0000000000000000     
  0.91882012999999996       0.38917363999999999        0.0000000000000000     
  0.39086346000000000        8.0652249999999995E-002   0.0000000000000000     
   7.9183480000000001E-002  0.38966213000000000        0.0000000000000000     
  0.59114111999999996       0.49294315000000000        0.0000000000000000     
  0.63337980999999999       0.64485914000000000        0.0000000000000000     
  0.50012352000000004       0.29676539000000002        0.0000000000000000     
  0.82552601000000003       0.92753492000000004        0.0000000000000000     
  0.92774772999999999       0.82498556999999995        0.0000000000000000     
   7.1970870000000006E-002  0.17510291000000000        0.0000000000000000     
  0.17422821999999999        7.2635640000000001E-002   0.0000000000000000     
  0.82510813000000005        7.2134840000000006E-002   0.0000000000000000     
  0.92754665000000003       0.17446275999999999        0.0000000000000000     
  0.17501022999999999       0.92789951999999998        0.0000000000000000     
   7.2464680000000004E-002  0.82554053000000005        0.0000000000000000     
  0.30731587999999999       0.50885354999999999        0.0000000000000000     
  0.59033407999999998       0.22171178999999999        0.0000000000000000     
  0.40109191999999999       0.78725542000000004        0.0000000000000000     
  0.35420917000000002       0.63754104000000000        0.0000000000000000     
  0.15983976999999999       0.56665573000000002        0.0000000000000000     
  0.84108459999999996       0.56757886999999996        0.0000000000000000     
  0.83902096000000004       0.43344338999999998        0.0000000000000000     
  0.43230028999999998       0.16004268999999999        0.0000000000000000     
  0.57536027999999995       0.83041363999999995        0.0000000000000000     
  0.15771898000000001       0.42747892999999998        0.0000000000000000     
  0.34021692999999997       0.34221559000000001        0.0000000000000000     
  0.56002271999999997       0.57501117999999996        0.0000000000000000     
  0.65344329000000001       0.78147597999999996        0.0000000000000000     
   0.0000000000000000        0.0000000000000000        0.0000000000000000     
   1.0000000000000000        0.0000000000000000        0.0000000000000000     
   1.0000000000000000        1.0000000000000000        0.0000000000000000     
   0.0000000000000000        1.0000000000000000        0.0000000000000000     
  0.11111111000000000        0.0000000000000000        0.0000000000000000     
  0.22222222000000000        0.0000000000000000        0.0000000000000000     
  0.33333332999999998        0.0000000000000000        0.0000000000000000     
  0.44444444000000000        0.0000000000000000        0.0000000000000000     
  0.55555555999999995        0.0000000000000000        0.0000000000000000     
  0.66666667000000002        0.0000000000000000        0.0000000000000000     
  0.77777777999999997        0.0000000000000000        0.0000000000000000     
  0.88888889000000004        0.0000000000000000        0.0000000000000000     
   1.0000000000000000       0.11111111000000000        0.0000000000000000     
   1.0000000000000000       0.22222222000000000        0.0000000000000000     
   1.0000000000000000       0.33333332999999998        0.0000000000000000     
   1.0000000000000000       0.44444444000000000        0.0000000000000000     
   1.0000000000000000       0.55555555999999995        0.0000000000000000     
   1.0000000000000000       0.66666667000000002        0.0000000000000000     
   1.0000000000000000       0.77777777999999997        0.0000000000000000     
   1.0000000000000000       0.88888889000000004        0.0000000000000000     
  0.88888889000000004        1.0000000000000000        0.0000000000000000     
  0.77777777999999997        1.0000000000000000        0.0000000000000000     
  0.66666667000000002        1.0000000000000000        0.0000000000000000     
  0.55555555999999995        1.0000000000000000        0.0000000000000000     
  0.44444444000000000        1.0000000000000000        0.0000000000000000     
  0.33333332999999998        1.0000000000000000        0.0000000000000000     
  0.22222222000000000        1.0000000000000000        0.0000000000000000     
  0.11111111000000000        1.0000000000000000        0.0000000000000000     
   0.0000000000000000       0.11111111000000000        0.0000000000000000     
   0.0000000000000000       0.22222222000000000        0.0000000000000000     
[...]
 CELL_DATA         354
 SCALARS C float
 LOOKUP_TABLE default
    0.83900381443194771425E+00
    0.11210989079977720095E+01
    0.63355428582556216899E+00
    0.68305801773133634214E+00
    0.93921184497197240937E+00
    0.10299332361740924924E+01
    0.11327460985969433072E+01
    0.10947161555513587050E+01
    0.11723066948604317083E+01
    0.11754924018066823521E+01
    0.11580020183626937857E+01
    0.11750096185207259403E+01
    0.11563036390022838340E+01
    0.11558145939178268158E+01
    0.11620425969571002156E+01
    0.11559042142219104754E+01
    0.11597425381775010589E+01
    0.11734143820167814987E+01
    0.11719862395604363492E+01
    0.11665033459686779960E+01
    0.11585481519422646812E+01
    0.11590186788212990532E+01
    0.11781397122986716486E+01
    0.11698159164226249462E+01
    0.11786303842310958956E+01
    0.11748290716770428688E+01
    0.11753742930170369974E+01
    0.11754948490172425490E+01
    0.11446300215370750486E+01
    0.10954392154826866346E+01
    0.93694004729120572428E+00
    0.10310738534755785611E+01
    0.84267590650549273334E+00
    0.74655227276930169467E+00
    0.64271328579834019479E+00
    0.68404094889802480317E+00
    0.63212199106892896783E+00
    0.64054704091650982445E+00
    0.68347874381662854226E+00
    0.65270998727027784714E+00
    0.69697339255196322227E+00
    0.69999611671778116939E+00
    0.71666267688226903410E+00
    0.70498151065435976648E+00
    0.70648046039665191032E+00
    0.66905341598661716151E+00
    0.64246483044291047282E+00
    0.65328449680345290762E+00
    0.63504587909701792903E+00
    0.62238896714651370523E+00
    0.64602522852720611901E+00
    0.63427030404266626640E+00
    0.87491135144978171567E+00
    0.89541283655450853995E+00
    0.96497232159729673384E+00
    0.92495764977017469466E+00
    0.97133899753273111877E+00
    0.94676090514611721538E+00
    0.90247132556311293605E+00
    0.92510348312081880362E+00
    0.85949277499744136666E+00
    0.79147181555404300113E+00
    0.69034738750205026925E+00
    0.74079688098223539505E+00
    0.65664953192839248253E+00
    0.62529498767226088241E+00
    0.63925571519341661819E+00
    0.62903181008555342224E+00
    0.11445735139875194974E+01
    0.11682969540045220480E+01
    0.11740130756874105344E+01
    0.11585091151948081478E+01
    0.11706532587762870090E+01
    0.11642813461244845286E+01
    0.11878066932896216290E+01
    0.11914013708838642192E+01
    0.11957034868341769318E+01
    0.11787621371646475055E+01
    0.11537944706703120445E+01
    0.11786628888770258605E+01
    0.10993440879271840771E+01
    0.11251883858952105300E+01
    0.11836502430004616215E+01
    0.11188432334307474303E+01
    0.11528202579957340657E+01
    0.11211125539562134534E+01
    0.10515535728395337678E+01
    0.11451632058008149873E+01
    0.11471139556609852850E+01
    0.11362485295604700664E+01
    0.10949686501224866753E+01
    0.11241638283927912756E+01
    0.10947226329812578260E+01
    0.98180377089241366306E+00
    0.95717282505184564378E+00
    0.10368464042307701245E+01
    0.11321585947509473780E+01
    0.11948474073618189362E+01
    0.11664307733640746356E+01
    0.11894627467668330567E+01
    0.11764484970138280318E+01
    0.11942645749982083725E+01
    0.11923088675803295011E+01
    0.11370648938639615899E+01
    0.11352878832360329131E+01
    0.10992322347850125297E+01
    0.10982356334564857825E+01
    0.11352078342933233923E+01
    0.11457052267401075518E+01
    0.11245115159555099105E+01
    0.96234001052928563880E+00
    0.11201760463922674216E+01
    0.10412675948672573956E+01
    0.10285743099583437576E+01
    0.11865612364970787862E+01
    0.11141040221113356345E+01
    0.11606512085170239690E+01
    0.11849765248915486993E+01
    0.11943744226205603720E+01
    0.11254340341903332767E+01
    0.11600917823341496682E+01
    0.80513677524964355481E+00
    0.90335598389613835923E+00
    0.73489538406665388948E+00
    0.92047429921591983337E+00
    0.97839432204675191862E+00
    0.74424808197897607265E+00
    0.79145991912683344438E+00
    0.11253958407952437959E+01
    0.11709239972020508702E+01
    0.10848531638171976521E+01
    0.11885539291128341954E+01
    0.11793979763877893152E+01
    0.10914459885617300294E+01
    0.11278856633816189969E+01
    0.11925898825551923821E+01
    0.11740895114509655173E+01
    0.11858248305880811913E+01
    0.11762850604991093029E+01
    0.11606499749755878614E+01
    0.11844924432553478599E+01
    0.11908073339158096182E+01
    0.70298525654850707589E+00
    0.68074038404346470799E+00
    0.63794752744602034600E+00
    0.77652878395377511467E+00
    0.76101631408688263924E+00
    0.64271484559653502266E+00
    0.64900018453542229757E+00
    0.11619152303204287602E+01
    0.11471357941661879387E+01
    0.11343944330330582027E+01
    0.11576033364722162489E+01
    0.11152908168960100621E+01
    0.11556771938221352958E+01
    0.11919981799991747895E+01
    0.11769275697628698296E+01
    0.11625790554189137094E+01
    0.11930799494979638098E+01
    0.11813091966890221229E+01
    0.11769115008613266760E+01
    0.11764598732500144429E+01
    0.11862001516567137749E+01
    0.11942991311316126790E+01
    0.11891083870516823140E+01
    0.84674604535903241764E+00
    0.95052569083948634798E+00
    0.84529551109406098064E+00
    0.94094477481022253951E+00
    0.99863981187835626496E+00
    0.11859628887104112227E+01
    0.11626245881350247835E+01
    0.11857273887264223600E+01
    0.11864798748153384533E+01
    0.11643695375811615733E+01
    0.11303188000340613772E+01
    0.11746448471445369854E+01
    0.11800460068688589654E+01
    0.11145466264733046025E+01
    0.11482830469112201843E+01
    0.11681799915112225374E+01
    0.11934530826007017090E+01
    0.11763839677949967655E+01
    0.11938074518487935549E+01
    0.11879567495798786236E+01
    0.10896387635743194355E+01
    0.11765040243955484645E+01
    0.11217730879574747682E+01
    0.11406958923620420521E+01
    0.11730109432605255737E+01
    0.11424368751899534047E+01
    0.11493529113192850755E+01
    0.11397206883595671911E+01
    0.11440317295314814672E+01
    0.11091771231743710047E+01
    0.82781967700716485581E+00
    0.10432356202637989018E+01
    0.91337681360198774705E+00
    0.88226139797872549231E+00
    0.99650868437488138163E+00
    0.81646963045954568106E+00
    0.74454841906406288299E+00
    0.82970805077564091512E+00
    0.75060317375474783219E+00
    0.89579061383518931994E+00
    0.10574773319873487232E+01
    0.11427639285697042126E+01
    0.11190428776193925842E+01
    0.11458811357797769048E+01
    0.11393208030538350961E+01
    0.11748099450044464653E+01
    0.11740510076151662311E+01
    0.11931538078691241722E+01
    0.11946658956398488183E+01
    0.11883678878642118804E+01
    0.11779726570307327282E+01
    0.11962545310528618359E+01
    0.11933315500511927354E+01
    0.11804925307864313488E+01
    0.10534540083244303688E+01
    0.10252875020442704379E+01
    0.10222293201606111879E+01
    0.11827372610292314903E+01
    0.11027636789520534055E+01
    0.11692594914556031505E+01
    0.74343834246677231725E+00
    0.78814813140893202892E+00
    0.91580877447049502393E+00
    0.89791786963412323352E+00
    0.91176280614025340121E+00
    0.10135021458541304540E+01
    0.10277098609659849338E+01
    0.10931798350179289248E+01
    0.11696508017703026727E+01
    0.12052723466314307910E+01
    0.11995766666248828258E+01
    0.11994224759507683409E+01
    0.11507586573754819970E+01
    0.11587151229606906799E+01
    0.11161838175944431839E+01
    0.11515037035981481317E+01
    0.11832187849677471281E+01
    0.10906699846066714166E+01
    0.11178966265522238821E+01
    0.11629201793305901091E+01
    0.11702570255318800463E+01
    0.87890918566516662569E+00
    0.76583875514550492358E+00
    0.71820521152401961551E+00
    0.11487499952925945834E+01
    0.10584830370912050590E+01
    0.10404860891601712680E+01
    0.11987951104956178217E+01
    0.11855293558700468193E+01
    0.11416112862201379663E+01
    0.11820857417584169635E+01
    0.11976966196623082261E+01
    0.11925110871969333282E+01
    0.10331433296148979650E+01
    0.10570802124035509895E+01
    0.84004618222573523845E+00
    0.11555031149243499833E+01
    0.11548746681377621837E+01
    0.11691729038541531782E+01
    0.79695105170785884852E+00
    0.77594228857476288397E+00
    0.66140536989709819427E+00
    0.75308505143777848545E+00
    0.68603227742735028993E+00
    0.64055519241705449751E+00
    0.11643985111917414255E+01
    0.11179889461183338817E+01
    0.11520687879536588571E+01
    0.11595275125686064221E+01
    0.11507361540624803098E+01
    0.11787478221247429389E+01
    0.12006521269315140188E+01
    0.11932531699412849413E+01
    0.10272612542114776257E+01
    0.11802398897811228196E+01
    0.11610294855810185943E+01
    0.10956495648759685402E+01
    0.11453402560330401272E+01
    0.11399136240463467740E+01
    0.10973245155032933518E+01
    0.11776867637267955935E+01
    0.11793793670049004252E+01
    0.98959898353852593367E+00
    0.10524888117030042345E+01
    0.67021965933026173001E+00
    0.70192981280738697691E+00
    0.11869602018661549181E+01
    0.11899345031753854052E+01
    0.62235903143859294673E+00
    0.62369162255432897268E+00
    0.12016322033651538614E+01
    0.10455284759584633214E+01
    0.10440376524222041432E+01
    0.11557100273653504452E+01
    0.86441824216857598984E+00
    0.11949866843713932152E+01
    0.11143527294701336405E+01
    0.92954931928686557185E+00
    0.11601989460185697656E+01
    0.11873491433003804385E+01
    0.11864872000433055454E+01
    0.11717179084511244458E+01
    0.11850769248677086587E+01
    0.86787486118757173337E+00
    0.94955365726533447202E+00
    0.11682813292146514428E+01
    0.12045106934073523952E+01
    0.11633733310861571475E+01
    0.11007534713441040619E+01
    0.11607734909381626220E+01
    0.11921270160456298726E+01
    0.10676605901815134914E+01
    0.10362657362738643130E+01
    0.82106501653253682882E+00
    0.76473303409746895554E+00
    0.11161026162892728752E+01
    0.10860154877478449542E+01
    0.63133018582172217847E+00
    0.62681198693455852933E+00
    0.71040467967315978903E+00
    0.70212505822038095982E+00
    0.10329897544177026880E+01
    0.11774507418197694975E+01
    0.12545514190373774355E+01
    0.12705703287699030568E+01
    0.12696005004487918022E+01
    0.12622424992189238413E+01
    0.12227731148572416053E+01
    0.11669579272869483599E+01
    0.11995171503481898423E+01
    0.11852573658397487222E+01
    0.11298145452772234698E+01
    0.10086504292759663759E+01
    0.83387102834873205737E+00
    0.68470322669981964481E+00
    0.62399823842026203025E+00
    0.64191686553474669452E+00
    0.65244035611450901246E+00
    0.65139109739058786985E+00
    0.63187081271575173957E+00
    0.62203870083352630349E+00
    0.64070924090789316274E+00
    0.83088508637692537473E+00
    0.86996769404589846530E+00
    0.85136226821894323002E+00
    0.79549058310256415272E+00
    0.71061026946004446359E+00
    0.64315079223669258113E+00
    0.63089861488717713378E+00
