# vtk DataFile Version 3.0
LAPLACIEN  2D
ASCII
DATASET UNSTRUCTURED_GRID
 POINTS         391  float
  0.50371505999999999       0.50367786999999997        0.0000000000000000     
  0.29013556000000001       0.29014535000000002        0.0000000000000000     
  0.70165584999999997       0.71206597999999999        0.0000000000000000     
  0.70304188999999995       0.30176619999999998        0.0000000000000000     
  0.30920671999999999       0.71149227999999998        0.0000000000000000     
  0.79044983999999996       0.49884783999999999        0.0000000000000000     
  0.49102621000000002       0.20968644000000000        0.0000000000000000     
  0.49912957000000002       0.77208717000000004        0.0000000000000000     
  0.21724072999999999       0.48989389000000000        0.0000000000000000     
  0.83255933999999998       0.83046598000000005        0.0000000000000000     
  0.16646774000000000       0.17015694000000001        0.0000000000000000     
  0.83054514999999995       0.16736480000000001        0.0000000000000000     
  0.16953130999999999       0.83265739000000005        0.0000000000000000     
  0.42166445000000002       0.36345201999999999        0.0000000000000000     
  0.64462200999999997       0.56347807999999999        0.0000000000000000     
  0.35324633999999999       0.56311191000000005        0.0000000000000000     
  0.65456411000000003       0.84856860999999995        0.0000000000000000     
  0.35141477999999998       0.15563974000000000        0.0000000000000000     
  0.15290967000000000       0.35206625000000003        0.0000000000000000     
  0.82942241000000005       0.34936866000000000        0.0000000000000000     
  0.84390527000000004       0.64441694999999999        0.0000000000000000     
  0.63699174999999997       0.14284276000000001        0.0000000000000000     
  0.15620682999999999       0.64648446999999998        0.0000000000000000     
  0.36426062999999997       0.85756310999999996        0.0000000000000000     
  0.63489340999999999       0.40519052000000000        0.0000000000000000     
  0.52518872999999999       0.65957078000000002        0.0000000000000000     
  0.32158959999999998       0.42298103999999997        0.0000000000000000     
  0.58861710000000000       0.31711036999999997        0.0000000000000000     
  0.42078418000000001       0.69497151999999995        0.0000000000000000     
  0.48608786999999998       0.89334152000000000        0.0000000000000000     
   9.7084320000000002E-002  0.50000000000000000        0.0000000000000000     
  0.90291568000000000       0.50000000000000000        0.0000000000000000     
  0.51392453000000005       0.10668648999999999        0.0000000000000000     
  0.59792566999999996       0.73122754000000001        0.0000000000000000     
  0.74510058999999995       0.41124730999999998        0.0000000000000000     
  0.73212551999999997       0.90191560000000004        0.0000000000000000     
   9.7784830000000003E-002  0.26957329000000002        0.0000000000000000     
  0.26711221000000002        9.8671499999999995E-002   0.0000000000000000     
  0.90191560000000004       0.26787448000000003        0.0000000000000000     
  0.90118569000000004       0.73039821000000005        0.0000000000000000     
  0.73122947000000005        9.8017859999999998E-002   0.0000000000000000     
   9.8084400000000002E-002  0.73212551999999997        0.0000000000000000     
  0.26957329000000002       0.90221516999999996        0.0000000000000000     
  0.39283522999999998       0.25360379000000000        0.0000000000000000     
  0.74480864000000002       0.60495284999999999        0.0000000000000000     
  0.25505132000000003       0.60593640999999998        0.0000000000000000     
  0.52159297999999998       0.40671636000000000        0.0000000000000000     
  0.40768852000000000       0.47699891000000000        0.0000000000000000     
   9.1467049999999994E-002   9.1876959999999994E-002   0.0000000000000000     
  0.90842484999999995       0.90819225000000003        0.0000000000000000     
  0.90820104999999995        9.1566729999999999E-002   0.0000000000000000     
   9.1807449999999999E-002  0.90843574000000005        0.0000000000000000     
  0.27098960000000000       0.20527094000000001        0.0000000000000000     
  0.73457293999999995       0.79835387000000002        0.0000000000000000     
  0.79817773000000003       0.25713470999999999        0.0000000000000000     
  0.20747797000000001       0.72863946000000002        0.0000000000000000     
  0.20175195000000001       0.27583914999999998        0.0000000000000000     
  0.79603889000000005       0.72159035000000005        0.0000000000000000     
  0.71761666000000002       0.19748431999999999        0.0000000000000000     
  0.28462607000000001       0.80251899999999998        0.0000000000000000     
  0.69134598999999997       0.49261972999999998        0.0000000000000000     
  0.44720578999999999       0.58582935999999997        0.0000000000000000     
  0.24242269999999999       0.37228174000000003        0.0000000000000000     
  0.38265623999999998       0.93072131999999996        0.0000000000000000     
  0.60971754000000000       0.91988369000000003        0.0000000000000000     
   7.9163609999999995E-002  0.60979116000000000        0.0000000000000000     
  0.92010649000000000       0.61081183999999999        0.0000000000000000     
  0.61954008999999999        7.1530830000000004E-002   0.0000000000000000     
  0.91882012999999996       0.38917363999999999        0.0000000000000000     
  0.39086346000000000        8.0652249999999995E-002   0.0000000000000000     
   7.9183480000000001E-002  0.38966213000000000        0.0000000000000000     
  0.59114111999999996       0.49294315000000000        0.0000000000000000     
  0.63337980999999999       0.64485914000000000        0.0000000000000000     
  0.50012352000000004       0.29676539000000002        0.0000000000000000     
  0.82552601000000003       0.92753492000000004        0.0000000000000000     
  0.92774772999999999       0.82498556999999995        0.0000000000000000     
   7.1970870000000006E-002  0.17510291000000000        0.0000000000000000     
  0.17422821999999999        7.2635640000000001E-002   0.0000000000000000     
  0.82510813000000005        7.2134840000000006E-002   0.0000000000000000     
  0.92754665000000003       0.17446275999999999        0.0000000000000000     
  0.17501022999999999       0.92789951999999998        0.0000000000000000     
   7.2464680000000004E-002  0.82554053000000005        0.0000000000000000     
  0.30731587999999999       0.50885354999999999        0.0000000000000000     
  0.59033407999999998       0.22171178999999999        0.0000000000000000     
  0.40109191999999999       0.78725542000000004        0.0000000000000000     
  0.35420917000000002       0.63754104000000000        0.0000000000000000     
  0.15983976999999999       0.56665573000000002        0.0000000000000000     
  0.84108459999999996       0.56757886999999996        0.0000000000000000     
  0.83902096000000004       0.43344338999999998        0.0000000000000000     
  0.43230028999999998       0.16004268999999999        0.0000000000000000     
  0.57536027999999995       0.83041363999999995        0.0000000000000000     
  0.15771898000000001       0.42747892999999998        0.0000000000000000     
  0.34021692999999997       0.34221559000000001        0.0000000000000000     
  0.56002271999999997       0.57501117999999996        0.0000000000000000     
  0.65344329000000001       0.78147597999999996        0.0000000000000000     
   0.0000000000000000        0.0000000000000000        0.0000000000000000     
   1.0000000000000000        0.0000000000000000        0.0000000000000000     
   1.0000000000000000        1.0000000000000000        0.0000000000000000     
   0.0000000000000000        1.0000000000000000        0.0000000000000000     
  0.11111111000000000        0.0000000000000000        0.0000000000000000     
  0.22222222000000000        0.0000000000000000        0.0000000000000000     
  0.33333332999999998        0.0000000000000000        0.0000000000000000     
  0.44444444000000000        0.0000000000000000        0.0000000000000000     
  0.55555555999999995        0.0000000000000000        0.0000000000000000     
  0.66666667000000002        0.0000000000000000        0.0000000000000000     
  0.77777777999999997        0.0000000000000000        0.0000000000000000     
  0.88888889000000004        0.0000000000000000        0.0000000000000000     
   1.0000000000000000       0.11111111000000000        0.0000000000000000     
   1.0000000000000000       0.22222222000000000        0.0000000000000000     
   1.0000000000000000       0.33333332999999998        0.0000000000000000     
   1.0000000000000000       0.44444444000000000        0.0000000000000000     
   1.0000000000000000       0.55555555999999995        0.0000000000000000     
   1.0000000000000000       0.66666667000000002        0.0000000000000000     
   1.0000000000000000       0.77777777999999997        0.0000000000000000     
   1.0000000000000000       0.88888889000000004        0.0000000000000000     
  0.88888889000000004        1.0000000000000000        0.0000000000000000     
  0.77777777999999997        1.0000000000000000        0.0000000000000000     
  0.66666667000000002        1.0000000000000000        0.0000000000000000     
  0.55555555999999995        1.0000000000000000        0.0000000000000000     
  0.44444444000000000        1.0000000000000000        0.0000000000000000     
  0.33333332999999998        1.0000000000000000        0.0000000000000000     
  0.22222222000000000        1.0000000000000000        0.0000000000000000     
  0.11111111000000000        1.0000000000000000        0.0000000000000000     
   0.0000000000000000       0.11111111000000000        0.0000000000000000     
   0.0000000000000000       0.22222222000000000        0.0000000000000000     
[...]
 CELL_DATA         354
 SCALARS C float
 LOOKUP_TABLE default
    0.84036511633357524609E+00
    0.11212392138299933642E+01
    0.63517506769797682509E+00
    0.68432577741079514411E+00
    0.94036766589330234023E+00
    0.10306611292206000474E+01
    0.11332458797156466090E+01
    0.10952593177972367311E+01
    0.11726600597821297267E+01
    0.11757675409837211600E+01
    0.11581981833912209368E+01
    0.11752214407632108895E+01
    0.11563936035055415452E+01
    0.11559370926458993889E+01
    0.11621817129223419585E+01
    0.11560682013039746963E+01
    0.11600123849360219896E+01
    0.11737550156551923575E+01
    0.11724502056491019619E+01
    0.11670753518048764263E+01
    0.11588137554140178764E+01
    0.11593875316878619053E+01
    0.11784607327896858830E+01
    0.11701147590280946975E+01
    0.11789531410657505539E+01
    0.11751966327712024540E+01
    0.11757251307666605200E+01
    0.11759674295618660622E+01
    0.11448089487479629067E+01
    0.10959180516617137435E+01
    0.93803766267472732387E+00
    0.10318521292918556576E+01
    0.84403387429151766064E+00
    0.74812103417698727625E+00
    0.64440898784499767160E+00
    0.68569833496437915255E+00
    0.63380536555177435787E+00
    0.64222861447927481748E+00
    0.68512959944951956626E+00
    0.65440496733221054093E+00
    0.69858702177983444948E+00
    0.70161232866933143093E+00
    0.71824791776818619482E+00
    0.70659583368916589752E+00
    0.70809693217510827346E+00
    0.67073461208932738664E+00
    0.64414292351142343751E+00
    0.65495681647569781170E+00
    0.63670328121553387835E+00
    0.62402292214341736898E+00
    0.64746088157057424262E+00
    0.63577523395832824527E+00
    0.87620652482032057584E+00
    0.89666731404648203352E+00
    0.96604657482749489716E+00
    0.92613425703040874737E+00
    0.97234596878460743952E+00
    0.94783770670509359668E+00
    0.90367988092339546213E+00
    0.92626028577370189687E+00
    0.86079871371619010034E+00
    0.79293250426725725433E+00
    0.69197759617510357089E+00
    0.74234555246358624458E+00
    0.65832225607438255022E+00
    0.62698087199386542956E+00
    0.64070146359295621075E+00
    0.63060099078761144842E+00
    0.11446046801067963905E+01
    0.11683231851579787275E+01
    0.11741837161822354929E+01
    0.11584759341270314259E+01
    0.11707786684189032123E+01
    0.11644017951206220296E+01
    0.11880345940798431315E+01
    0.11916548677708962423E+01
    0.11958869091853083777E+01
    0.11788170650531126782E+01
    0.11543656809921538642E+01
    0.11791834626177972734E+01
    0.10997613927944933643E+01
    0.11257615263742721812E+01
    0.11841480186865653845E+01
    0.11192656563344316467E+01
    0.11528880638959408955E+01
    0.11210641148467812567E+01
    0.10510195007109761622E+01
    0.11451948309131956272E+01
    0.11471135947804507182E+01
    0.11363251932539657485E+01
    0.10947444277427160753E+01
    0.11247575980379966865E+01
    0.10953205190956207815E+01
    0.98270975736565824299E+00
    0.95826900692516103764E+00
    0.10375560259548188835E+01
    0.11329154466708390991E+01
    0.11951227998684155196E+01
    0.11665641475386419046E+01
    0.11896693876627495445E+01
    0.11765596865903849011E+01
    0.11944797606148198632E+01
    0.11924702140170975184E+01
    0.11370255906546289371E+01
    0.11352818499864305579E+01
    0.10993113588035208217E+01
    0.10983175493937842315E+01
    0.11351764207842471865E+01
    0.11464230477498638106E+01
    0.11249984406441619900E+01
    0.96347897325295228654E+00
    0.11207204339143035376E+01
    0.10419081299523149653E+01
    0.10292414134126532943E+01
    0.11868489421392041105E+01
    0.11145767535690982442E+01
    0.11612906649163607931E+01
    0.11855187902214721074E+01
    0.11948801776558677368E+01
    0.11257339451905523653E+01
    0.11608813197464182831E+01
    0.80657932691613321019E+00
    0.90456606912889525596E+00
    0.73648560157581344221E+00
    0.92167543031681209431E+00
    0.97944422954757381916E+00
    0.74579312243611151079E+00
    0.79292839835324413489E+00
    0.11258094864951235792E+01
    0.11715466495385540302E+01
    0.10853653908702005637E+01
    0.11890697610755731617E+01
    0.11800154494253545234E+01
    0.10918525859485692653E+01
    0.11283997976690482989E+01
    0.11927678248348054790E+01
    0.11741640863473525869E+01
    0.11861094471971063147E+01
    0.11763931243151961592E+01
    0.11607362312254239090E+01
    0.11846730739287130163E+01
    0.11910222338325571201E+01
    0.70461331707539343050E+00
    0.68239874158478175392E+00
    0.63962407943027876911E+00
    0.77804344510334044749E+00
    0.76255820669305263149E+00
    0.64439674432899352041E+00
    0.65068384146758329045E+00
    0.11619991798143674000E+01
    0.11470315699291726563E+01
    0.11344777132541858933E+01
    0.11575924528952903358E+01
    0.11153725030412473540E+01
    0.11556426285322680680E+01
    0.11921876405246221164E+01
    0.11770204431649642363E+01
    0.11626987804909820756E+01
    0.11932696989353028805E+01
    0.11814501855853545287E+01
    0.11774402324483763671E+01
    0.11766452013270578547E+01
    0.11864326857528912917E+01
    0.11945635521031474635E+01
    0.11896485054603962439E+01
    0.84814204563428119421E+00
    0.95168950941752694650E+00
    0.84671633665145773495E+00
    0.94208796075664125169E+00
    0.99963869482772449437E+00
    0.11861468851310952299E+01
    0.11626896992339563752E+01
    0.11859162337317150637E+01
    0.11865345425034941051E+01
    0.11643931692958706670E+01
    0.11308543574610809834E+01
    0.11753063908960335038E+01
    0.11806449016061089097E+01
    0.11149983027002474678E+01
    0.11489473678880228746E+01
    0.11682096886228805488E+01
    0.11935789838922268302E+01
    0.11764321751514890124E+01
    0.11939927574174427072E+01
    0.11881196863790985940E+01
    0.10902135504407899358E+01
    0.11770354456775999896E+01
    0.11223641915048798712E+01
    0.11413750575951879807E+01
    0.11736021081649581355E+01
    0.11423072831387177661E+01
    0.11493635113205549203E+01
    0.11395391725978241126E+01
    0.11440382515488269899E+01
    0.11090945879357430037E+01
    0.82926632141017031508E+00
    0.10439695583390642408E+01
    0.91457647439314726512E+00
    0.88359912173257182388E+00
    0.99739856082840872009E+00
    0.81785274091699378118E+00
    0.74614590753279841362E+00
    0.83111417531866982333E+00
    0.75216306522577847105E+00
    0.89700498881887147373E+00
    0.10573284719380264818E+01
    0.11428187446075392941E+01
    0.11190419713616681641E+01
    0.11459156948454769509E+01
    0.11393610273848604475E+01
    0.11753865403307346416E+01
    0.11746405584143406742E+01
    0.11934279321546534813E+01
    0.11949567927614719309E+01
    0.11885506692096532433E+01
    0.11780337240524130227E+01
    0.11964308363875293395E+01
    0.11934912296554212041E+01
    0.11805382909721173768E+01
    0.10530833594778927775E+01
    0.10245563793090661786E+01
    0.10214030076134570368E+01
    0.11832533109107865599E+01
    0.11030393919034378047E+01
    0.11700426517632875889E+01
    0.74500103155626784535E+00
    0.78963514270046031296E+00
    0.91701733978945165759E+00
    0.89917422686339332216E+00
    0.91299916675407599698E+00
    0.10143715167156370782E+01
    0.10283656062788757435E+01
    0.10939060589951046243E+01
    0.11700573113842200890E+01
    0.12056580160817618186E+01
    0.11999949333834052378E+01
    0.11996785886008898281E+01
    0.11507541818247801757E+01
    0.11588446299226533576E+01
    0.11162009176187572823E+01
    0.11514524867492359483E+01
    0.11837405558377560588E+01
    0.10911340161511824398E+01
    0.11184284768322085846E+01
    0.11629178368209187600E+01
    0.11704368216552116788E+01
    0.88021437158181548011E+00
    0.76738696970749242787E+00
    0.71980810276657181124E+00
    0.11494422473482970304E+01
    0.10590778791436794570E+01
    0.10410629268767104261E+01
    0.11991446215544385723E+01
    0.11857320967290054803E+01
    0.11422250610621853539E+01
    0.11822837585766106105E+01
    0.11979014459088386246E+01
    0.11927537865651749449E+01
    0.10339111093935760000E+01
    0.10578549345146617267E+01
    0.84140830824899437435E+00
    0.11555085036647256835E+01
    0.11549689305069701373E+01
    0.11693804796994824446E+01
    0.79843397253740777675E+00
    0.77747362218297455527E+00
    0.66307929608636506646E+00
    0.75464602317505069529E+00
    0.68770844422325050349E+00
    0.64223307795765371964E+00
    0.11646440239272664030E+01
    0.11180161073020578044E+01
    0.11520023334458893149E+01
    0.11594782524630693477E+01
    0.11513509936187236171E+01
    0.11789789606766740704E+01
    0.12009021825854089283E+01
    0.11935839064194535553E+01
    0.10280177689672060914E+01
    0.11807890729562406928E+01
    0.11617573453181271326E+01
    0.10961804311351395214E+01
    0.11453995310628497517E+01
    0.11398960795182955241E+01
    0.10971410794919231879E+01
    0.11778133539963366871E+01
    0.11795622249676032123E+01
    0.99060531357383074802E+00
    0.10531151039280661763E+01
    0.67190657096502803824E+00
    0.70358311728585054556E+00
    0.11874438309341448505E+01
    0.11903407826282241810E+01
    0.62396681437166856554E+00
    0.62533047136972053082E+00
    0.12020170862181098759E+01
    0.10462232265608231163E+01
    0.10447998468312100773E+01
    0.11556616530701715462E+01
    0.86576562768129172731E+00
    0.11953758381942583000E+01
    0.11144148537465783377E+01
    0.93069149857221933342E+00
    0.11601789484634570382E+01
    0.11878416079952474060E+01
    0.11866466843739877923E+01
    0.11723888039108845138E+01
    0.11852581656528990983E+01
    0.86922111091354459234E+00
    0.95071938528371768840E+00
    0.11688939980790247208E+01
    0.12047402143411094499E+01
    0.11634635159600368315E+01
    0.11013480281285001894E+01
    0.11608999134283475296E+01
    0.11923157043008389966E+01
    0.10672574171599240600E+01
    0.10370931103172209564E+01
    0.82248257970215477020E+00
    0.76623396475921201620E+00
    0.11166382605333329270E+01
    0.10865047948686559209E+01
    0.63292580415321775256E+00
    0.62838018441562559779E+00
    0.71154473884142555029E+00
    0.70326304051136956375E+00
    0.10337166359703846563E+01
    0.11778882725849588731E+01
    0.12546541214561166555E+01
    0.12704108064975743186E+01
    0.12693780648134800337E+01
    0.12622253397121170337E+01
    0.12231426882032399028E+01
    0.11674241871942074855E+01
    0.11999811439641803190E+01
    0.11857417137953112363E+01
    0.11302723678138359986E+01
    0.10094998147965223989E+01
    0.83522924250758512343E+00
    0.68634918523745036545E+00
    0.62566748979095954120E+00
    0.64360188175481902739E+00
    0.65412552275096058629E+00
    0.65307125307041247186E+00
    0.63355909181685432507E+00
    0.62367625118903446957E+00
    0.64218328788829159848E+00
    0.83225545884822249576E+00
    0.87124621968011073392E+00
    0.85268657779978007660E+00
    0.79693213179602184759E+00
    0.71221581927405930301E+00
    0.64482349929496096674E+00
    0.63245484200839408029E+00
