# vtk DataFile Version 3.0
LAPLACIEN  2D
ASCII
DATASET UNSTRUCTURED_GRID
 POINTS         391  float
  0.50371505999999999       0.50367786999999997        0.0000000000000000     
  0.29013556000000001       0.29014535000000002        0.0000000000000000     
  0.70165584999999997       0.71206597999999999        0.0000000000000000     
  0.70304188999999995       0.30176619999999998        0.0000000000000000     
  0.30920671999999999       0.71149227999999998        0.0000000000000000     
  0.79044983999999996       0.49884783999999999        0.0000000000000000     
  0.49102621000000002       0.20968644000000000        0.0000000000000000     
  0.49912957000000002       0.77208717000000004        0.0000000000000000     
  0.21724072999999999       0.48989389000000000        0.0000000000000000     
  0.83255933999999998       0.83046598000000005        0.0000000000000000     
  0.16646774000000000       0.17015694000000001        0.0000000000000000     
  0.83054514999999995       0.16736480000000001        0.0000000000000000     
  0.16953130999999999       0.83265739000000005        0.0000000000000000     
  0.42166445000000002       0.36345201999999999        0.0000000000000000     
  0.64462200999999997       0.56347807999999999        0.0000000000000000     
  0.35324633999999999       0.56311191000000005        0.0000000000000000     
  0.65456411000000003       0.84856860999999995        0.0000000000000000     
  0.35141477999999998       0.15563974000000000        0.0000000000000000     
  0.15290967000000000       0.35206625000000003        0.0000000000000000     
  0.82942241000000005       0.34936866000000000        0.0000000000000000     
  0.84390527000000004       0.64441694999999999        0.0000000000000000     
  0.63699174999999997       0.14284276000000001        0.0000000000000000     
  0.15620682999999999       0.64648446999999998        0.0000000000000000     
  0.36426062999999997       0.85756310999999996        0.0000000000000000     
  0.63489340999999999       0.40519052000000000        0.0000000000000000     
  0.52518872999999999       0.65957078000000002        0.0000000000000000     
  0.32158959999999998       0.42298103999999997        0.0000000000000000     
  0.58861710000000000       0.31711036999999997        0.0000000000000000     
  0.42078418000000001       0.69497151999999995        0.0000000000000000     
  0.48608786999999998       0.89334152000000000        0.0000000000000000     
   9.7084320000000002E-002  0.50000000000000000        0.0000000000000000     
  0.90291568000000000       0.50000000000000000        0.0000000000000000     
  0.51392453000000005       0.10668648999999999        0.0000000000000000     
  0.59792566999999996       0.73122754000000001        0.0000000000000000     
  0.74510058999999995       0.41124730999999998        0.0000000000000000     
  0.73212551999999997       0.90191560000000004        0.0000000000000000     
   9.7784830000000003E-002  0.26957329000000002        0.0000000000000000     
  0.26711221000000002        9.8671499999999995E-002   0.0000000000000000     
  0.90191560000000004       0.26787448000000003        0.0000000000000000     
  0.90118569000000004       0.73039821000000005        0.0000000000000000     
  0.73122947000000005        9.8017859999999998E-002   0.0000000000000000     
   9.8084400000000002E-002  0.73212551999999997        0.0000000000000000     
  0.26957329000000002       0.90221516999999996        0.0000000000000000     
  0.39283522999999998       0.25360379000000000        0.0000000000000000     
  0.74480864000000002       0.60495284999999999        0.0000000000000000     
  0.25505132000000003       0.60593640999999998        0.0000000000000000     
  0.52159297999999998       0.40671636000000000        0.0000000000000000     
  0.40768852000000000       0.47699891000000000        0.0000000000000000     
   9.1467049999999994E-002   9.1876959999999994E-002   0.0000000000000000     
  0.90842484999999995       0.90819225000000003        0.0000000000000000     
  0.90820104999999995        9.1566729999999999E-002   0.0000000000000000     
   9.1807449999999999E-002  0.90843574000000005        0.0000000000000000     
  0.27098960000000000       0.20527094000000001        0.0000000000000000     
  0.73457293999999995       0.79835387000000002        0.0000000000000000     
  0.79817773000000003       0.25713470999999999        0.0000000000000000     
  0.20747797000000001       0.72863946000000002        0.0000000000000000     
  0.20175195000000001       0.27583914999999998        0.0000000000000000     
  0.79603889000000005       0.72159035000000005        0.0000000000000000     
  0.71761666000000002       0.19748431999999999        0.0000000000000000     
  0.28462607000000001       0.80251899999999998        0.0000000000000000     
  0.69134598999999997       0.49261972999999998        0.0000000000000000     
  0.44720578999999999       0.58582935999999997        0.0000000000000000     
  0.24242269999999999       0.37228174000000003        0.0000000000000000     
  0.38265623999999998       0.93072131999999996        0.0000000000000000     
  0.60971754000000000       0.91988369000000003        0.0000000000000000     
   7.9163609999999995E-002  0.60979116000000000        0.0000000000000000     
  0.92010649000000000       0.61081183999999999        0.0000000000000000     
  0.61954008999999999        7.1530830000000004E-002   0.0000000000000000     
  0.91882012999999996       0.38917363999999999        0.0000000000000000     
  0.39086346000000000        8.0652249999999995E-002   0.0000000000000000     
   7.9183480000000001E-002  0.38966213000000000        0.0000000000000000     
  0.59114111999999996       0.49294315000000000        0.0000000000000000     
  0.63337980999999999       0.64485914000000000        0.0000000000000000     
  0.50012352000000004       0.29676539000000002        0.0000000000000000     
  0.82552601000000003       0.92753492000000004        0.0000000000000000     
  0.92774772999999999       0.82498556999999995        0.0000000000000000     
   7.1970870000000006E-002  0.17510291000000000        0.0000000000000000     
  0.17422821999999999        7.2635640000000001E-002   0.0000000000000000     
  0.82510813000000005        7.2134840000000006E-002   0.0000000000000000     
  0.92754665000000003       0.17446275999999999        0.0000000000000000     
  0.17501022999999999       0.92789951999999998        0.0000000000000000     
   7.2464680000000004E-002  0.82554053000000005        0.0000000000000000     
  0.30731587999999999       0.50885354999999999        0.0000000000000000     
  0.59033407999999998       0.22171178999999999        0.0000000000000000     
  0.40109191999999999       0.78725542000000004        0.0000000000000000     
  0.35420917000000002       0.63754104000000000        0.0000000000000000     
  0.15983976999999999       0.56665573000000002        0.0000000000000000     
  0.84108459999999996       0.56757886999999996        0.0000000000000000     
  0.83902096000000004       0.43344338999999998        0.0000000000000000     
  0.43230028999999998       0.16004268999999999        0.0000000000000000     
  0.57536027999999995       0.83041363999999995        0.0000000000000000     
  0.15771898000000001       0.42747892999999998        0.0000000000000000     
  0.34021692999999997       0.34221559000000001        0.0000000000000000     
  0.56002271999999997       0.57501117999999996        0.0000000000000000     
  0.65344329000000001       0.78147597999999996        0.0000000000000000     
   0.0000000000000000        0.0000000000000000        0.0000000000000000     
   1.0000000000000000        0.0000000000000000        0.0000000000000000     
   1.0000000000000000        1.0000000000000000        0.0000000000000000     
   0.0000000000000000        1.0000000000000000        0.0000000000000000     
  0.11111111000000000        0.0000000000000000        0.0000000000000000     
  0.22222222000000000        0.0000000000000000        0.0000000000000000     
  0.33333332999999998        0.0000000000000000        0.0000000000000000     
  0.44444444000000000        0.0000000000000000        0.0000000000000000     
  0.55555555999999995        0.0000000000000000        0.0000000000000000     
  0.66666667000000002        0.0000000000000000        0.0000000000000000     
  0.77777777999999997        0.0000000000000000        0.0000000000000000     
  0.88888889000000004        0.0000000000000000        0.0000000000000000     
   1.0000000000000000       0.11111111000000000        0.0000000000000000     
   1.0000000000000000       0.22222222000000000        0.0000000000000000     
   1.0000000000000000       0.33333332999999998        0.0000000000000000     
   1.0000000000000000       0.44444444000000000        0.0000000000000000     
   1.0000000000000000       0.55555555999999995        0.0000000000000000     
   1.0000000000000000       0.66666667000000002        0.0000000000000000     
   1.0000000000000000       0.77777777999999997        0.0000000000000000     
   1.0000000000000000       0.88888889000000004        0.0000000000000000     
  0.88888889000000004        1.0000000000000000        0.0000000000000000     
  0.77777777999999997        1.0000000000000000        0.0000000000000000     
  0.66666667000000002        1.0000000000000000        0.0000000000000000     
  0.55555555999999995        1.0000000000000000        0.0000000000000000     
  0.44444444000000000        1.0000000000000000        0.0000000000000000     
  0.33333332999999998        1.0000000000000000        0.0000000000000000     
  0.22222222000000000        1.0000000000000000        0.0000000000000000     
  0.11111111000000000        1.0000000000000000        0.0000000000000000     
   0.0000000000000000       0.11111111000000000        0.0000000000000000     
   0.0000000000000000       0.22222222000000000        0.0000000000000000     
[...]
 CELL_DATA         354
 SCALARS C float
 LOOKUP_TABLE default
    0.84707439168796738738E+00
    0.11221195163573587372E+01
    0.64318633369478939166E+00
    0.69060115426180890275E+00
    0.94604301764259401963E+00
    0.10341791375046107682E+01
    0.11358768064247084517E+01
    0.10979257526858861027E+01
    0.11745578074926861234E+01
    0.11772001271751646456E+01
    0.11592284985164487132E+01
    0.11763305360419611389E+01
    0.11569196841405657850E+01
    0.11566292326926161937E+01
    0.11629534417796671963E+01
    0.11569564722477350127E+01
    0.11614125293647616921E+01
    0.11754680132597772335E+01
    0.11749124588824428894E+01
    0.11699653246344650093E+01
    0.11603198774607621502E+01
    0.11613503228220523056E+01
    0.11801500417114298980E+01
    0.11716601222099158885E+01
    0.11806336904787424480E+01
    0.11770696867284113907E+01
    0.11775873387989959085E+01
    0.11783776332710638179E+01
    0.11458475233807350335E+01
    0.10983106877344501751E+01
    0.94341965242418113213E+00
    0.10356076659009891827E+01
    0.85072581800455127077E+00
    0.75586415577369636676E+00
    0.65278714260244796730E+00
    0.69388421525092969233E+00
    0.64212611640741990016E+00
    0.65053709707044427013E+00
    0.69328219419085024278E+00
    0.66277905550415372460E+00
    0.70654982521800713258E+00
    0.70958889187888307681E+00
    0.72606965173885973375E+00
    0.71456338111381167977E+00
    0.71607741037960537245E+00
    0.67903872785079211205E+00
    0.65243135192585055560E+00
    0.66321537382532147475E+00
    0.64489291329353515270E+00
    0.63210345663233569180E+00
    0.65456215396439121346E+00
    0.64321236580217833190E+00
    0.88258722915092824302E+00
    0.90284601226978167254E+00
    0.97132348335690676944E+00
    0.93192144864476322841E+00
    0.97726913722146158126E+00
    0.95310961179601061399E+00
    0.90962400147126476480E+00
    0.93194646158484428788E+00
    0.86723013132804449565E+00
    0.80013414542702909760E+00
    0.70002295956308979719E+00
    0.74998532159604436309E+00
    0.66658519949332528665E+00
    0.63531524356636226436E+00
    0.64784183703168451984E+00
    0.63835607937163629799E+00
    0.11448231540945272844E+01
    0.11685694522655747374E+01
    0.11751113778871007387E+01
    0.11584016783988801969E+01
    0.11715083710667777428E+01
    0.11650931022700241613E+01
    0.11892346626602607884E+01
    0.11929408614394292343E+01
    0.11968485110916846637E+01
    0.11792082772619825182E+01
    0.11573722959979211300E+01
    0.11818816652735599781E+01
    0.11018034603873310129E+01
    0.11286758254547919478E+01
    0.11868212711380978774E+01
    0.11213344077658853326E+01
    0.11532859792196807902E+01
    0.11210267207649144972E+01
    0.10483843379839732357E+01
    0.11455502028215984733E+01
    0.11472066293390947855E+01
    0.11369181859592223383E+01
    0.10937693590700503510E+01
    0.11277471536552385878E+01
    0.10983288963591215648E+01
    0.98710689715489874363E+00
    0.96365551313502173514E+00
    0.10409712904128478606E+01
    0.11369092844730022129E+01
    0.11965355260623760092E+01
    0.11673242865109645372E+01
    0.11907525989325513649E+01
    0.11772216709833847048E+01
    0.11955837631222494544E+01
    0.11933655781811520757E+01
    0.11369974025727862532E+01
    0.11353784425343276254E+01
    0.11000102312946182792E+01
    0.10990764030421482644E+01
    0.11351431531681934750E+01
    0.11501215667692410438E+01
    0.11275179303219045046E+01
    0.96908163716665352005E+00
    0.11234743620482923188E+01
    0.10450908693975899943E+01
    0.10325180022010436165E+01
    0.11883369504347782719E+01
    0.11169752966984916043E+01
    0.11646550947822491562E+01
    0.11882676800068505685E+01
    0.11975296375353461364E+01
    0.11272393207639619384E+01
    0.11649347683169262169E+01
    0.81369209463648939362E+00
    0.91051530261706625780E+00
    0.74433810663311550382E+00
    0.92758157944017827212E+00
    0.98459369327882173550E+00
    0.75341519168957427066E+00
    0.80017038738487300531E+00
    0.11278955229466909316E+01
    0.11747511197943167893E+01
    0.10878997285855906973E+01
    0.11917518760259078192E+01
    0.11832464023797752972E+01
    0.10937213633250668643E+01
    0.11310452497073688605E+01
    0.11937067978409283686E+01
    0.11746450347401449221E+01
    0.11875733450456817941E+01
    0.11770292474094574686E+01
    0.11612453962736941637E+01
    0.11856386639009242057E+01
    0.11921268981688390998E+01
    0.71264996281987902371E+00
    0.69058642284845306314E+00
    0.64791043674369908079E+00
    0.78551969187792791693E+00
    0.77016894164687910163E+00
    0.65270509831075718132E+00
    0.65899988780760243579E+00
    0.11624915784072269442E+01
    0.11466279664197904786E+01
    0.11351017349591343564E+01
    0.11576312893714069130E+01
    0.11160123133885129221E+01
    0.11555886374672172945E+01
    0.11931837986313094113E+01
    0.11775903371860991786E+01
    0.11633926127922560312E+01
    0.11942615191005809816E+01
    0.11822675161255615794E+01
    0.11801451120200636691E+01
    0.11776371973918855485E+01
    0.11876267008946128634E+01
    0.11958817001351940146E+01
    0.11924346003118084791E+01
    0.85503111254098151939E+00
    0.95742240339889217449E+00
    0.85373220036432084790E+00
    0.94771168574169240006E+00
    0.10045400292088630945E+01
    0.11871364848140368853E+01
    0.11631192345897447549E+01
    0.11869308743266513417E+01
    0.11869358550436304167E+01
    0.11646231926364958298E+01
    0.11335810109120045830E+01
    0.11787009212456449614E+01
    0.11836876486388838714E+01
    0.11173011681584847921E+01
    0.11523158277802583171E+01
    0.11684529225051669687E+01
    0.11942705277390601726E+01
    0.11767849128520211366E+01
    0.11949609911582184107E+01
    0.11890255738208099778E+01
    0.10930306276095411722E+01
    0.11798241886491376285E+01
    0.11253192100199649328E+01
    0.11447686412045796622E+01
    0.11766648387611402526E+01
    0.11417998728742650982E+01
    0.11495135852435376389E+01
    0.11388348482589987221E+01
    0.11441808820568943883E+01
    0.11088872903391697733E+01
    0.83640989489274741864E+00
    0.10475050558300824655E+01
    0.92047708104460912448E+00
    0.89020132946788033124E+00
    0.10017161293793477306E+01
    0.82466373139446302876E+00
    0.75403708240339439861E+00
    0.83804813556745882952E+00
    0.75986153774338993649E+00
    0.90297776005082863726E+00
    0.10566774302820647335E+01
    0.11432986332678864994E+01
    0.11192562845360645163E+01
    0.11461516502215329805E+01
    0.11397681718151240204E+01
    0.11783514537538057887E+01
    0.11776749036336908727E+01
    0.11948448256664390144E+01
    0.11964527128781374810E+01
    0.11895097848867344226E+01
    0.11784454527786869527E+01
    0.11973734535086695274E+01
    0.11943418398740410780E+01
    0.11808871181536328976E+01
    0.10512669667122300776E+01
    0.10208735282921377330E+01
    0.10172583134944095384E+01
    0.11858862465632267202E+01
    0.11043687552968690646E+01
    0.11740724541470712872E+01
    0.75271201141423993430E+00
    0.79697068035547014020E+00
    0.92296072994549782642E+00
    0.90535926886255291279E+00
    0.91908732292342587566E+00
    0.10185957761694159895E+01
    0.10315458190072102074E+01
    0.10975434055268420419E+01
    0.11722795710154423343E+01
    0.12076268278975166304E+01
    0.12021798846581490672E+01
    0.12009707771740727456E+01
    0.11508720455126761895E+01
    0.11595895752874794127E+01
    0.11164708362983928325E+01
    0.11513261775656062902E+01
    0.11865220383211534383E+01
    0.10933785551215464693E+01
    0.11210404788711449964E+01
    0.11630011141187044377E+01
    0.11714141902220371882E+01
    0.88664972235353090024E+00
    0.77502989259904397912E+00
    0.72771947869917186225E+00
    0.11530664473949783222E+01
    0.10619818672286673866E+01
    0.10438011633857682270E+01
    0.12009607101562878029E+01
    0.11868362468165671864E+01
    0.11453547322998791635E+01
    0.11833425059874913554E+01
    0.11989790160075344261E+01
    0.11940276724387688390E+01
    0.10376685067012563213E+01
    0.10616488220258046837E+01
    0.84812110101049598132E+00
    0.11556431215878708585E+01
    0.11555601143391003305E+01
    0.11704901072078357505E+01
    0.80575307801050044532E+00
    0.78503393648705888097E+00
    0.67134682130738543293E+00
    0.76235268887329599163E+00
    0.69598852889981532854E+00
    0.65052052620016054263E+00
    0.11659297848342899950E+01
    0.11182717067035663483E+01
    0.11518025128058115847E+01
    0.11593648594782353101E+01
    0.11545055040688190218E+01
    0.11801961135624297050E+01
    0.12022066404758475766E+01
    0.11953182921805824979E+01
    0.10316661053868938502E+01
    0.11836330845204074969E+01
    0.11655852746952390930E+01
    0.10987981871158927216E+01
    0.11457773632118277707E+01
    0.11400195214208683758E+01
    0.10963912654673069191E+01
    0.11785375998539346920E+01
    0.11805370257422067581E+01
    0.99552115299522814240E+00
    0.10562302428009755495E+01
    0.68024015043497154664E+00
    0.71175042698798152152E+00
    0.11898926452684186472E+01
    0.11924904559452935704E+01
    0.63190714649507551126E+00
    0.63342789318240966256E+00
    0.12039748791238307213E+01
    0.10496596445225525596E+01
    0.10485005279433403658E+01
    0.11555413801588276801E+01
    0.87240967779977141028E+00
    0.11973473392946223370E+01
    0.11150450857088785028E+01
    0.93630246903478786535E+00
    0.11601714740082955668E+01
    0.11903416370474628749E+01
    0.11875244153477926279E+01
    0.11757759361414741317E+01
    0.11862352256878894163E+01
    0.87586270575352309642E+00
    0.95645953153182972084E+00
    0.11720792234540819976E+01
    0.12059074811367314073E+01
    0.11640097250009486807E+01
    0.11042923013460168580E+01
    0.11616321644834948223E+01
    0.11933109969328159483E+01
    0.10654946029246858963E+01
    0.10411078103638600201E+01
    0.82947433418987648324E+00
    0.77363397513595377752E+00
    0.11194023939520814093E+01
    0.10889678027554776651E+01
    0.64081207890516778125E+00
    0.63613390354008680916E+00
    0.71719504082406715373E+00
    0.70888833595293210266E+00
    0.10372436571661936000E+01
    0.11801509296258889670E+01
    0.12551570975993442403E+01
    0.12696622979232219386E+01
    0.12683341723670216172E+01
    0.12621598116755641250E+01
    0.12249682899616849419E+01
    0.11697219354038412842E+01
    0.12022817803256298230E+01
    0.11881255062806741485E+01
    0.11325754670363057386E+01
    0.10136137334847479252E+01
    0.84191869805463326326E+00
    0.69447714831791207413E+00
    0.63391534897427193052E+00
    0.65192334777595162265E+00
    0.66244688806894191924E+00
    0.66136743701170630505E+00
    0.64189918206123564026E+00
    0.63176930906151151923E+00
    0.64947675906352875241E+00
    0.83900549354531395174E+00
    0.87753767069146482172E+00
    0.85920640130221159758E+00
    0.80403579681717607386E+00
    0.72013839382867461669E+00
    0.65308492053945854661E+00
    0.64015000563972246361E+00
