# vtk DataFile Version 3.0
LAPLACIEN  2D
ASCII
DATASET UNSTRUCTURED_GRID
 POINTS         391  float
  0.50371505999999999       0.50367786999999997        0.0000000000000000     
  0.29013556000000001       0.29014535000000002        0.0000000000000000     
  0.70165584999999997       0.71206597999999999        0.0000000000000000     
  0.70304188999999995       0.30176619999999998        0.0000000000000000     
  0.30920671999999999       0.71149227999999998        0.0000000000000000     
  0.79044983999999996       0.49884783999999999        0.0000000000000000     
  0.49102621000000002       0.20968644000000000        0.0000000000000000     
  0.49912957000000002       0.77208717000000004        0.0000000000000000     
  0.21724072999999999       0.48989389000000000        0.0000000000000000     
  0.83255933999999998       0.83046598000000005        0.0000000000000000     
  0.16646774000000000       0.17015694000000001        0.0000000000000000     
  0.83054514999999995       0.16736480000000001        0.0000000000000000     
  0.16953130999999999       0.83265739000000005        0.0000000000000000     
  0.42166445000000002       0.36345201999999999        0.0000000000000000     
  0.64462200999999997       0.56347807999999999        0.0000000000000000     
  0.35324633999999999       0.56311191000000005        0.0000000000000000     
  0.65456411000000003       0.84856860999999995        0.0000000000000000     
  0.35141477999999998       0.15563974000000000        0.0000000000000000     
  0.15290967000000000       0.35206625000000003        0.0000000000000000     
  0.82942241000000005       0.34936866000000000        0.0000000000000000     
  0.84390527000000004       0.64441694999999999        0.0000000000000000     
  0.63699174999999997       0.14284276000000001        0.0000000000000000     
  0.15620682999999999       0.64648446999999998        0.0000000000000000     
  0.36426062999999997       0.85756310999999996        0.0000000000000000     
  0.63489340999999999       0.40519052000000000        0.0000000000000000     
  0.52518872999999999       0.65957078000000002        0.0000000000000000     
  0.32158959999999998       0.42298103999999997        0.0000000000000000     
  0.58861710000000000       0.31711036999999997        0.0000000000000000     
  0.42078418000000001       0.69497151999999995        0.0000000000000000     
  0.48608786999999998       0.89334152000000000        0.0000000000000000     
   9.7084320000000002E-002  0.50000000000000000        0.0000000000000000     
  0.90291568000000000       0.50000000000000000        0.0000000000000000     
  0.51392453000000005       0.10668648999999999        0.0000000000000000     
  0.59792566999999996       0.73122754000000001        0.0000000000000000     
  0.74510058999999995       0.41124730999999998        0.0000000000000000     
  0.73212551999999997       0.90191560000000004        0.0000000000000000     
   9.7784830000000003E-002  0.26957329000000002        0.0000000000000000     
  0.26711221000000002        9.8671499999999995E-002   0.0000000000000000     
  0.90191560000000004       0.26787448000000003        0.0000000000000000     
  0.90118569000000004       0.73039821000000005        0.0000000000000000     
  0.73122947000000005        9.8017859999999998E-002   0.0000000000000000     
   9.8084400000000002E-002  0.73212551999999997        0.0000000000000000     
  0.26957329000000002       0.90221516999999996        0.0000000000000000     
  0.39283522999999998       0.25360379000000000        0.0000000000000000     
  0.74480864000000002       0.60495284999999999        0.0000000000000000     
  0.25505132000000003       0.60593640999999998        0.0000000000000000     
  0.52159297999999998       0.40671636000000000        0.0000000000000000     
  0.40768852000000000       0.47699891000000000        0.0000000000000000     
   9.1467049999999994E-002   9.1876959999999994E-002   0.0000000000000000     
  0.90842484999999995       0.90819225000000003        0.0000000000000000     
  0.90820104999999995        9.1566729999999999E-002   0.0000000000000000     
   9.1807449999999999E-002  0.90843574000000005        0.0000000000000000     
  0.27098960000000000       0.20527094000000001        0.0000000000000000     
  0.73457293999999995       0.79835387000000002        0.0000000000000000     
  0.79817773000000003       0.25713470999999999        0.0000000000000000     
  0.20747797000000001       0.72863946000000002        0.0000000000000000     
  0.20175195000000001       0.27583914999999998        0.0000000000000000     
  0.79603889000000005       0.72159035000000005        0.0000000000000000     
  0.71761666000000002       0.19748431999999999        0.0000000000000000     
  0.28462607000000001       0.80251899999999998        0.0000000000000000     
  0.69134598999999997       0.49261972999999998        0.0000000000000000     
  0.44720578999999999       0.58582935999999997        0.0000000000000000     
  0.24242269999999999       0.37228174000000003        0.0000000000000000     
  0.38265623999999998       0.93072131999999996        0.0000000000000000     
  0.60971754000000000       0.91988369000000003        0.0000000000000000     
   7.9163609999999995E-002  0.60979116000000000        0.0000000000000000     
  0.92010649000000000       0.61081183999999999        0.0000000000000000     
  0.61954008999999999        7.1530830000000004E-002   0.0000000000000000     
  0.91882012999999996       0.38917363999999999        0.0000000000000000     
  0.39086346000000000        8.0652249999999995E-002   0.0000000000000000     
   7.9183480000000001E-002  0.38966213000000000        0.0000000000000000     
  0.59114111999999996       0.49294315000000000        0.0000000000000000     
  0.63337980999999999       0.64485914000000000        0.0000000000000000     
  0.50012352000000004       0.29676539000000002        0.0000000000000000     
  0.82552601000000003       0.92753492000000004        0.0000000000000000     
  0.92774772999999999       0.82498556999999995        0.0000000000000000     
   7.1970870000000006E-002  0.17510291000000000        0.0000000000000000     
  0.17422821999999999        7.2635640000000001E-002   0.0000000000000000     
  0.82510813000000005        7.2134840000000006E-002   0.0000000000000000     
  0.92754665000000003       0.17446275999999999        0.0000000000000000     
  0.17501022999999999       0.92789951999999998        0.0000000000000000     
   7.2464680000000004E-002  0.82554053000000005        0.0000000000000000     
  0.30731587999999999       0.50885354999999999        0.0000000000000000     
  0.59033407999999998       0.22171178999999999        0.0000000000000000     
  0.40109191999999999       0.78725542000000004        0.0000000000000000     
  0.35420917000000002       0.63754104000000000        0.0000000000000000     
  0.15983976999999999       0.56665573000000002        0.0000000000000000     
  0.84108459999999996       0.56757886999999996        0.0000000000000000     
  0.83902096000000004       0.43344338999999998        0.0000000000000000     
  0.43230028999999998       0.16004268999999999        0.0000000000000000     
  0.57536027999999995       0.83041363999999995        0.0000000000000000     
  0.15771898000000001       0.42747892999999998        0.0000000000000000     
  0.34021692999999997       0.34221559000000001        0.0000000000000000     
  0.56002271999999997       0.57501117999999996        0.0000000000000000     
  0.65344329000000001       0.78147597999999996        0.0000000000000000     
   0.0000000000000000        0.0000000000000000        0.0000000000000000     
   1.0000000000000000        0.0000000000000000        0.0000000000000000     
   1.0000000000000000        1.0000000000000000        0.0000000000000000     
   0.0000000000000000        1.0000000000000000        0.0000000000000000     
  0.11111111000000000        0.0000000000000000        0.0000000000000000     
  0.22222222000000000        0.0000000000000000        0.0000000000000000     
  0.33333332999999998        0.0000000000000000        0.0000000000000000     
  0.44444444000000000        0.0000000000000000        0.0000000000000000     
  0.55555555999999995        0.0000000000000000        0.0000000000000000     
  0.66666667000000002        0.0000000000000000        0.0000000000000000     
  0.77777777999999997        0.0000000000000000        0.0000000000000000     
  0.88888889000000004        0.0000000000000000        0.0000000000000000     
   1.0000000000000000       0.11111111000000000        0.0000000000000000     
   1.0000000000000000       0.22222222000000000        0.0000000000000000     
   1.0000000000000000       0.33333332999999998        0.0000000000000000     
   1.0000000000000000       0.44444444000000000        0.0000000000000000     
   1.0000000000000000       0.55555555999999995        0.0000000000000000     
   1.0000000000000000       0.66666667000000002        0.0000000000000000     
   1.0000000000000000       0.77777777999999997        0.0000000000000000     
   1.0000000000000000       0.88888889000000004        0.0000000000000000     
  0.88888889000000004        1.0000000000000000        0.0000000000000000     
  0.77777777999999997        1.0000000000000000        0.0000000000000000     
  0.66666667000000002        1.0000000000000000        0.0000000000000000     
  0.55555555999999995        1.0000000000000000        0.0000000000000000     
  0.44444444000000000        1.0000000000000000        0.0000000000000000     
  0.33333332999999998        1.0000000000000000        0.0000000000000000     
  0.22222222000000000        1.0000000000000000        0.0000000000000000     
  0.11111111000000000        1.0000000000000000        0.0000000000000000     
   0.0000000000000000       0.11111111000000000        0.0000000000000000     
   0.0000000000000000       0.22222222000000000        0.0000000000000000     
[...]
 CELL_DATA         354
 SCALARS C float
 LOOKUP_TABLE default
    0.74257509843246294334E+00
    0.11472053701205762177E+01
    0.51938695639742038512E+00
    0.59887553401246029772E+00
    0.85995213259376346304E+00
    0.97492636944557420353E+00
    0.12363156125086549597E+01
    0.11079596448502408990E+01
    0.13430345225952935451E+01
    0.14129522884697816032E+01
    0.14770955364492475148E+01
    0.14632966408502947608E+01
    0.14867755066489345417E+01
    0.14906541971463855845E+01
    0.14830687298258284912E+01
    0.14874890919809677925E+01
    0.14545745160890892755E+01
    0.14091342258896977224E+01
    0.12603982202694596904E+01
    0.13339701498166047777E+01
    0.12175906911658114229E+01
    0.12549044774510045297E+01
    0.13382682133147303372E+01
    0.12993051956251293610E+01
    0.13476072114120747347E+01
    0.13274946525522588470E+01
    0.12580603724455305947E+01
    0.12961955157163846941E+01
    0.11854411871878687279E+01
    0.10803705328281654197E+01
    0.85785898634206403379E+00
    0.97265417535625697809E+00
    0.74683891341336039460E+00
    0.63490895506454136932E+00
    0.52209745043343303017E+00
    0.56620506559866867757E+00
    0.51321199162622765932E+00
    0.52081144281977487243E+00
    0.56549875905927682318E+00
    0.53173975474614887382E+00
    0.58019451353159134932E+00
    0.58339962957647106823E+00
    0.60217383795415513337E+00
    0.58864500760661786494E+00
    0.59078906918018536665E+00
    0.54847303924844559297E+00
    0.52190038314638287353E+00
    0.53281187697621745780E+00
    0.51710476811067551672E+00
    0.50781504996970461274E+00
    0.54727828556263913296E+00
    0.52843136767619147687E+00
    0.78360442157394094576E+00
    0.80696485545604956791E+00
    0.88963206449971310441E+00
    0.84140213034191946306E+00
    0.89814353967891469299E+00
    0.86860860471645839898E+00
    0.81620576956049262218E+00
    0.84280498542270343432E+00
    0.76645359064232065904E+00
    0.68656378947083407382E+00
    0.57234385005180643535E+00
    0.62941987897907092364E+00
    0.53719319136979659657E+00
    0.50593882604790663127E+00
    0.53690928335657062132E+00
    0.51794774329751924746E+00
    0.14362384903160732019E+01
    0.14890385001074093463E+01
    0.14862908087761383946E+01
    0.14736125469036367441E+01
    0.14936327745415431956E+01
    0.14870584724652737840E+01
    0.14674254718625669991E+01
    0.14246274148936950432E+01
    0.14525406626373493779E+01
    0.14914553589539427669E+01
    0.12189036963671608937E+01
    0.13100705185600456382E+01
    0.10741565128088095271E+01
    0.11585598713917439895E+01
    0.13179370736503148720E+01
    0.11212550783121313369E+01
    0.14457292819300535669E+01
    0.13226905113846978423E+01
    0.11986539372653923774E+01
    0.14153503723414169180E+01
    0.14367449128427154381E+01
    0.13842604559806697129E+01
    0.12651339350160777375E+01
    0.11265277420789208129E+01
    0.10888701708312429339E+01
    0.91829699902644323917E+00
    0.88525608491796703436E+00
    0.98649165511091851943E+00
    0.11634324837159657484E+01
    0.14235765964199185163E+01
    0.14889324623466155817E+01
    0.14543202874613565534E+01
    0.14908530271757181040E+01
    0.14215120198976278765E+01
    0.14804514396053696235E+01
    0.14111853796449578269E+01
    0.14052188883964649158E+01
    0.12981113811439575212E+01
    0.12987408712804893174E+01
    0.14289324153112259452E+01
    0.12289996048905362791E+01
    0.11539140299643289023E+01
    0.89093165607840241194E+00
    0.11437118216723973774E+01
    0.99889360333781362922E+00
    0.98209355387778529689E+00
    0.13960923595175525058E+01
    0.11026041649035931425E+01
    0.12238990239165024043E+01
    0.13501681178353295287E+01
    0.13500363606674701256E+01
    0.11284220546020589104E+01
    0.12222025875874320544E+01
    0.70353712952909286393E+00
    0.81976157665472948466E+00
    0.62319050813739995665E+00
    0.84059910044289853914E+00
    0.91072823107707068235E+00
    0.63404082466248079530E+00
    0.68780606120168219508E+00
    0.11354435174171835232E+01
    0.12897773262206075895E+01
    0.10503264136556476060E+01
    0.13398167977617037039E+01
    0.12784300818975884440E+01
    0.10544610473623758917E+01
    0.11572013042456963383E+01
    0.14704223044512239049E+01
    0.14931960195843572148E+01
    0.14137769879533472750E+01
    0.14921806775316635019E+01
    0.14796140688294714405E+01
    0.14598807354554321769E+01
    0.14292323553369761235E+01
    0.58645110851368420501E+00
    0.56165608536362665593E+00
    0.51887839327690421509E+00
    0.67090451254606309206E+00
    0.65259716760175234818E+00
    0.52218986103070696991E+00
    0.52822824490908260042E+00
    0.14797620198936087821E+01
    0.14418879412661902428E+01
    0.13889559401413538176E+01
    0.14697349096058827111E+01
    0.13489339946033462869E+01
    0.14766792818415406252E+01
    0.14630866057603764130E+01
    0.14935265621903262012E+01
    0.14893886275243195527E+01
    0.14587095770531655070E+01
    0.14918932246797116381E+01
    0.13051165785323917135E+01
    0.14620143909394591741E+01
    0.14350538430825718894E+01
    0.14089780702176946114E+01
    0.13457036878958448245E+01
    0.75250332947719911214E+00
    0.87743992418392491306E+00
    0.75036834728451307086E+00
    0.86617658157031340860E+00
    0.93618675185489241830E+00
    0.14440867624819975212E+01
    0.14881751480223710526E+01
    0.14740585380660951031E+01
    0.14868708926120202118E+01
    0.14910650924838277920E+01
    0.11422151759295748885E+01
    0.12771040496372703110E+01
    0.13110963711023293499E+01
    0.11002349855342148377E+01
    0.12007491683265705262E+01
    0.14838988966070192355E+01
    0.14788409498523029661E+01
    0.14907000307603635036E+01
    0.14630166682512848464E+01
    0.14903206089725959949E+01
    0.10564303916738859712E+01
    0.12996944239568806179E+01
    0.11491439154659226496E+01
    0.11591734612353639111E+01
    0.12826601440450375868E+01
    0.14431888555209091418E+01
    0.14718340913452581109E+01
    0.14274841900602297518E+01
    0.14712673965003193466E+01
    0.13577845567611219746E+01
    0.73022707203030812195E+00
    0.99310229511518577361E+00
    0.83223300980147640882E+00
    0.79431046377715808227E+00
    0.93471666084300464306E+00
    0.71684640161918211643E+00
    0.63303547601445231408E+00
    0.73181895589027934346E+00
    0.63980235632963577963E+00
    0.81045842220205044359E+00
    0.12141557404024865274E+01
    0.14089906536455134578E+01
    0.13227814583501231738E+01
    0.14304508431617126707E+01
    0.14066588394124273087E+01
    0.13038533506448044541E+01
    0.12911332215275490576E+01
    0.14173803767983936819E+01
    0.13931616997754820986E+01
    0.14434205631946035453E+01
    0.14919863854498629507E+01
    0.14497930610375919791E+01
    0.14503694233843966721E+01
    0.14919654786993357121E+01
    0.12046718760390879854E+01
    0.11438225937084549599E+01
    0.11375015352180042338E+01
    0.13493634354986503432E+01
    0.10809417697415184545E+01
    0.12570989355051811476E+01
    0.63190170665124134608E+00
    0.68328309101508621914E+00
    0.83394804909875019927E+00
    0.81341950474126412107E+00
    0.82843414536300152839E+00
    0.95223446547208656643E+00
    0.97629031582611869311E+00
    0.10698596888086386869E+01
    0.12322298675589058448E+01
    0.13736543184411358354E+01
    0.13494471045723248626E+01
    0.14265815934930892173E+01
    0.14859380294860624616E+01
    0.14887095141300754619E+01
    0.13682722018517066154E+01
    0.14741953220287706827E+01
    0.13126926853070481904E+01
    0.10593682405351505516E+01
    0.11170994353312826419E+01
    0.14776094400785073635E+01
    0.14891931012548140778E+01
    0.79137015210844596780E+00
    0.65730377419384033999E+00
    0.60375835298185875910E+00
    0.12069328485784758254E+01
    0.10113539057664495679E+01
    0.98994831829308105320E+00
    0.14046731931824778528E+01
    0.14306667400690484815E+01
    0.12277068214513593425E+01
    0.14832754010158777369E+01
    0.14258514155319881311E+01
    0.14061054696472532477E+01
    0.98340665959873463375E+00
    0.10082676946918378569E+01
    0.74468102093295795996E+00
    0.14761098994202923596E+01
    0.14954213278660917208E+01
    0.14696573678211231062E+01
    0.69440740537924849907E+00
    0.66939337894240524829E+00
    0.54164099721248137875E+00
    0.64359944018490200524E+00
    0.56701716064341001200E+00
    0.52010641596582252166E+00
    0.14780722916180153437E+01
    0.13642545007763997589E+01
    0.14681710643929419824E+01
    0.14844598735184526550E+01
    0.12494124720533341666E+01
    0.14711118087978269919E+01
    0.14079635708728184262E+01
    0.13840391521226504956E+01
    0.97455706055326840609E+00
    0.13074658671367473950E+01
    0.12273390677467577170E+01
    0.10865593774840440755E+01
    0.14392127498610056691E+01
    0.14079346688639351459E+01
    0.12738208625806854979E+01
    0.14833970726746570357E+01
    0.14660233813110072898E+01
    0.92054511648935966051E+00
    0.10097621523638224961E+01
    0.55046509415212485639E+00
    0.58542288801282715838E+00
    0.13800001512675512672E+01
    0.13452622858598370925E+01
    0.50680280194285831641E+00
    0.50647754429167934909E+00
    0.13958934388345798361E+01
    0.10038102105176076595E+01
    0.99484724248966294180E+00
    0.14645852014948754771E+01
    0.77311787590851333007E+00
    0.13809411907240813910E+01
    0.13402850539879851421E+01
    0.85078374492089614556E+00
    0.14747223652973846519E+01
    0.13684931406945946009E+01
    0.14772207721057344365E+01
    0.12950491956568521701E+01
    0.14701189272173800227E+01
    0.77767482165490686707E+00
    0.87460857372093658846E+00
    0.12503019231746019813E+01
    0.14478664805682024408E+01
    0.14895892821648064608E+01
    0.10788994810286638426E+01
    0.14889440447874140450E+01
    0.14554823106073973005E+01
    0.12016752105844592524E+01
    0.98308900959518763507E+00
    0.72146381550975324792E+00
    0.65556173597876965520E+00
    0.11036423304501612463E+01
    0.10631514996837321263E+01
    0.51882759181189408437E+00
    0.51700824687715640771E+00
    0.63762698253523519831E+00
    0.62587770783735585667E+00
    0.97750054283827170210E+00
    0.12293432510672774871E+01
    0.13941655549455935770E+01
    0.14661909986714050103E+01
    0.14743393729506426570E+01
    0.14361464770105611954E+01
    0.13138389321670151944E+01
    0.11913468385659671256E+01
    0.12527182612883152046E+01
    0.12251433212131592754E+01
    0.11231882796877237229E+01
    0.94248135750336603511E+00
    0.73564417485859068258E+00
    0.56727308854804914251E+00
    0.50485474176769984389E+00
    0.52020095414897860042E+00
    0.53041366033869408181E+00
    0.52967261457600145480E+00
    0.51051836901100033916E+00
    0.50571287179026480629E+00
    0.53970621101397786568E+00
    0.73094845464906788024E+00
    0.77606343877957273403E+00
    0.75423477149235107486E+00
    0.69009640613788780783E+00
    0.59407545522376181690E+00
    0.52280022888937538461E+00
    0.52213659337615558886E+00
