# vtk DataFile Version 3.0
LAPLACIEN  2D
ASCII
DATASET UNSTRUCTURED_GRID
 POINTS         391  float
  0.50371505999999999       0.50367786999999997        0.0000000000000000     
  0.29013556000000001       0.29014535000000002        0.0000000000000000     
  0.70165584999999997       0.71206597999999999        0.0000000000000000     
  0.70304188999999995       0.30176619999999998        0.0000000000000000     
  0.30920671999999999       0.71149227999999998        0.0000000000000000     
  0.79044983999999996       0.49884783999999999        0.0000000000000000     
  0.49102621000000002       0.20968644000000000        0.0000000000000000     
  0.49912957000000002       0.77208717000000004        0.0000000000000000     
  0.21724072999999999       0.48989389000000000        0.0000000000000000     
  0.83255933999999998       0.83046598000000005        0.0000000000000000     
  0.16646774000000000       0.17015694000000001        0.0000000000000000     
  0.83054514999999995       0.16736480000000001        0.0000000000000000     
  0.16953130999999999       0.83265739000000005        0.0000000000000000     
  0.42166445000000002       0.36345201999999999        0.0000000000000000     
  0.64462200999999997       0.56347807999999999        0.0000000000000000     
  0.35324633999999999       0.56311191000000005        0.0000000000000000     
  0.65456411000000003       0.84856860999999995        0.0000000000000000     
  0.35141477999999998       0.15563974000000000        0.0000000000000000     
  0.15290967000000000       0.35206625000000003        0.0000000000000000     
  0.82942241000000005       0.34936866000000000        0.0000000000000000     
  0.84390527000000004       0.64441694999999999        0.0000000000000000     
  0.63699174999999997       0.14284276000000001        0.0000000000000000     
  0.15620682999999999       0.64648446999999998        0.0000000000000000     
  0.36426062999999997       0.85756310999999996        0.0000000000000000     
  0.63489340999999999       0.40519052000000000        0.0000000000000000     
  0.52518872999999999       0.65957078000000002        0.0000000000000000     
  0.32158959999999998       0.42298103999999997        0.0000000000000000     
  0.58861710000000000       0.31711036999999997        0.0000000000000000     
  0.42078418000000001       0.69497151999999995        0.0000000000000000     
  0.48608786999999998       0.89334152000000000        0.0000000000000000     
   9.7084320000000002E-002  0.50000000000000000        0.0000000000000000     
  0.90291568000000000       0.50000000000000000        0.0000000000000000     
  0.51392453000000005       0.10668648999999999        0.0000000000000000     
  0.59792566999999996       0.73122754000000001        0.0000000000000000     
  0.74510058999999995       0.41124730999999998        0.0000000000000000     
  0.73212551999999997       0.90191560000000004        0.0000000000000000     
   9.7784830000000003E-002  0.26957329000000002        0.0000000000000000     
  0.26711221000000002        9.8671499999999995E-002   0.0000000000000000     
  0.90191560000000004       0.26787448000000003        0.0000000000000000     
  0.90118569000000004       0.73039821000000005        0.0000000000000000     
  0.73122947000000005        9.8017859999999998E-002   0.0000000000000000     
   9.8084400000000002E-002  0.73212551999999997        0.0000000000000000     
  0.26957329000000002       0.90221516999999996        0.0000000000000000     
  0.39283522999999998       0.25360379000000000        0.0000000000000000     
  0.74480864000000002       0.60495284999999999        0.0000000000000000     
  0.25505132000000003       0.60593640999999998        0.0000000000000000     
  0.52159297999999998       0.40671636000000000        0.0000000000000000     
  0.40768852000000000       0.47699891000000000        0.0000000000000000     
   9.1467049999999994E-002   9.1876959999999994E-002   0.0000000000000000     
  0.90842484999999995       0.90819225000000003        0.0000000000000000     
  0.90820104999999995        9.1566729999999999E-002   0.0000000000000000     
   9.1807449999999999E-002  0.90843574000000005        0.0000000000000000     
  0.27098960000000000       0.20527094000000001        0.0000000000000000     
  0.73457293999999995       0.79835387000000002        0.0000000000000000     
  0.79817773000000003       0.25713470999999999        0.0000000000000000     
  0.20747797000000001       0.72863946000000002        0.0000000000000000     
  0.20175195000000001       0.27583914999999998        0.0000000000000000     
  0.79603889000000005       0.72159035000000005        0.0000000000000000     
  0.71761666000000002       0.19748431999999999        0.0000000000000000     
  0.28462607000000001       0.80251899999999998        0.0000000000000000     
  0.69134598999999997       0.49261972999999998        0.0000000000000000     
  0.44720578999999999       0.58582935999999997        0.0000000000000000     
  0.24242269999999999       0.37228174000000003        0.0000000000000000     
  0.38265623999999998       0.93072131999999996        0.0000000000000000     
  0.60971754000000000       0.91988369000000003        0.0000000000000000     
   7.9163609999999995E-002  0.60979116000000000        0.0000000000000000     
  0.92010649000000000       0.61081183999999999        0.0000000000000000     
  0.61954008999999999        7.1530830000000004E-002   0.0000000000000000     
  0.91882012999999996       0.38917363999999999        0.0000000000000000     
  0.39086346000000000        8.0652249999999995E-002   0.0000000000000000     
   7.9183480000000001E-002  0.38966213000000000        0.0000000000000000     
  0.59114111999999996       0.49294315000000000        0.0000000000000000     
  0.63337980999999999       0.64485914000000000        0.0000000000000000     
  0.50012352000000004       0.29676539000000002        0.0000000000000000     
  0.82552601000000003       0.92753492000000004        0.0000000000000000     
  0.92774772999999999       0.82498556999999995        0.0000000000000000     
   7.1970870000000006E-002  0.17510291000000000        0.0000000000000000     
  0.17422821999999999        7.2635640000000001E-002   0.0000000000000000     
  0.82510813000000005        7.2134840000000006E-002   0.0000000000000000     
  0.92754665000000003       0.17446275999999999        0.0000000000000000     
  0.17501022999999999       0.92789951999999998        0.0000000000000000     
   7.2464680000000004E-002  0.82554053000000005        0.0000000000000000     
  0.30731587999999999       0.50885354999999999        0.0000000000000000     
  0.59033407999999998       0.22171178999999999        0.0000000000000000     
  0.40109191999999999       0.78725542000000004        0.0000000000000000     
  0.35420917000000002       0.63754104000000000        0.0000000000000000     
  0.15983976999999999       0.56665573000000002        0.0000000000000000     
  0.84108459999999996       0.56757886999999996        0.0000000000000000     
  0.83902096000000004       0.43344338999999998        0.0000000000000000     
  0.43230028999999998       0.16004268999999999        0.0000000000000000     
  0.57536027999999995       0.83041363999999995        0.0000000000000000     
  0.15771898000000001       0.42747892999999998        0.0000000000000000     
  0.34021692999999997       0.34221559000000001        0.0000000000000000     
  0.56002271999999997       0.57501117999999996        0.0000000000000000     
  0.65344329000000001       0.78147597999999996        0.0000000000000000     
   0.0000000000000000        0.0000000000000000        0.0000000000000000     
   1.0000000000000000        0.0000000000000000        0.0000000000000000     
   1.0000000000000000        1.0000000000000000        0.0000000000000000     
   0.0000000000000000        1.0000000000000000        0.0000000000000000     
  0.11111111000000000        0.0000000000000000        0.0000000000000000     
  0.22222222000000000        0.0000000000000000        0.0000000000000000     
  0.33333332999999998        0.0000000000000000        0.0000000000000000     
  0.44444444000000000        0.0000000000000000        0.0000000000000000     
  0.55555555999999995        0.0000000000000000        0.0000000000000000     
  0.66666667000000002        0.0000000000000000        0.0000000000000000     
  0.77777777999999997        0.0000000000000000        0.0000000000000000     
  0.88888889000000004        0.0000000000000000        0.0000000000000000     
   1.0000000000000000       0.11111111000000000        0.0000000000000000     
   1.0000000000000000       0.22222222000000000        0.0000000000000000     
   1.0000000000000000       0.33333332999999998        0.0000000000000000     
   1.0000000000000000       0.44444444000000000        0.0000000000000000     
   1.0000000000000000       0.55555555999999995        0.0000000000000000     
   1.0000000000000000       0.66666667000000002        0.0000000000000000     
   1.0000000000000000       0.77777777999999997        0.0000000000000000     
   1.0000000000000000       0.88888889000000004        0.0000000000000000     
  0.88888889000000004        1.0000000000000000        0.0000000000000000     
  0.77777777999999997        1.0000000000000000        0.0000000000000000     
  0.66666667000000002        1.0000000000000000        0.0000000000000000     
  0.55555555999999995        1.0000000000000000        0.0000000000000000     
  0.44444444000000000        1.0000000000000000        0.0000000000000000     
  0.33333332999999998        1.0000000000000000        0.0000000000000000     
  0.22222222000000000        1.0000000000000000        0.0000000000000000     
  0.11111111000000000        1.0000000000000000        0.0000000000000000     
   0.0000000000000000       0.11111111000000000        0.0000000000000000     
   0.0000000000000000       0.22222222000000000        0.0000000000000000     
[...]
 CELL_DATA         354
 SCALARS C float
 LOOKUP_TABLE default
    0.84441003752213161793E+00
    0.11217370024623432023E+01
    0.64000029968496718880E+00
    0.68810373922571876903E+00
    0.94379358664577817084E+00
    0.10327962739394400682E+01
    0.11348015703961582545E+01
    0.10968696603307845905E+01
    0.11737762802742510715E+01
    0.11766173544633025116E+01
    0.11588076410296670460E+01
    0.11758781259471065006E+01
    0.11566954869083305724E+01
    0.11563380321677183549E+01
    0.11626309425340677350E+01
    0.11565889080156508406E+01
    0.11608436827088499665E+01
    0.11747821109621492397E+01
    0.11739012754622979440E+01
    0.11688051782751402996E+01
    0.11596876934042228413E+01
    0.11605444701897840165E+01
    0.11794599478248410929E+01
    0.11710345210347479217E+01
    0.11799503796757968566E+01
    0.11763153484130535187E+01
    0.11768243614656264118E+01
    0.11774055376232588355E+01
    0.11454089335644987990E+01
    0.10973566981027724765E+01
    0.94128798147656411732E+00
    0.10341324381981833458E+01
    0.84806853674022031342E+00
    0.75278695944714124622E+00
    0.64945587298976525936E+00
    0.69062999178972961367E+00
    0.63881697553764671405E+00
    0.64723350115354105760E+00
    0.69004140572394812025E+00
    0.65944949908522665361E+00
    0.70338566280968450872E+00
    0.70641906041337809707E+00
    0.72296174727347639610E+00
    0.71139707517788597357E+00
    0.71290550497003457586E+00
    0.67573736572779319332E+00
    0.64913629224031266229E+00
    0.65993245864047722637E+00
    0.64163646164782439651E+00
    0.62888905138399397998E+00
    0.65173704511916574766E+00
    0.64025497171584355716E+00
    0.88005389525922139704E+00
    0.90039318521977196319E+00
    0.96923151799471263246E+00
    0.92962565873610458755E+00
    0.97532213266660994222E+00
    0.95102319793588330210E+00
    0.90726599420341957902E+00
    0.92969146836353933061E+00
    0.86467712032364896224E+00
    0.79727374807688800029E+00
    0.69682584185941998101E+00
    0.74695002652968445211E+00
    0.66330007617977593259E+00
    0.63200044006390443396E+00
    0.64500329720415661150E+00
    0.63527214656354380473E+00
    0.11447241626618691601E+01
    0.11684497304483296709E+01
    0.11747267038751836310E+01
    0.11584142194510167467E+01
    0.11711973293307820221E+01
    0.11648000137544261001E+01
    0.11887436803195317037E+01
    0.11924236607737876970E+01
    0.11964561590704665406E+01
    0.11790299438895359696E+01
    0.11561423737424652014E+01
    0.11807861098434180303E+01
    0.11009964788734434293E+01
    0.11275027581250078867E+01
    0.11857188023687768030E+01
    0.11205160257844271054E+01
    0.11531159930746381903E+01
    0.11210051133264427037E+01
    0.10494334991625027254E+01
    0.11453715061590388213E+01
    0.11471516199267566272E+01
    0.11366430340648019381E+01
    0.10941336205014824401E+01
    0.11265485381665032438E+01
    0.10971244078076947126E+01
    0.98537426288928198215E+00
    0.96151975882432783038E+00
    0.10396312483541592098E+01
    0.11352746359725969238E+01
    0.11959643169004285923E+01
    0.11670029304422675498E+01
    0.11903104230403291908E+01
    0.11769370895006610045E+01
    0.11951376288728465802E+01
    0.11929909335232609102E+01
    0.11369770565236652082E+01
    0.11353161877383426415E+01
    0.10996777523561243051E+01
    0.10987113314931982178E+01
    0.11351344552279190037E+01
    0.11486231300085689710E+01
    0.11264959065195054855E+01
    0.96685900255252743563E+00
    0.11223685936813094788E+01
    0.10438231395778405641E+01
    0.10312200738482035778E+01
    0.11877336198730421568E+01
    0.11160108798487389237E+01
    0.11632792923904857751E+01
    0.11871622781982058559E+01
    0.11964484090317222265E+01
    0.11266382178132881009E+01
    0.11632943666505537461E+01
    0.81086689872427009096E+00
    0.90815577116031631633E+00
    0.74121675231690864472E+00
    0.92523897481005801247E+00
    0.98255389222728772847E+00
    0.75038689385570256363E+00
    0.79729358944117478813E+00
    0.11270593736932259521E+01
    0.11734539715289715733E+01
    0.10868924831468089742E+01
    0.11906607289787447534E+01
    0.11819283395932409508E+01
    0.10930060459263049033E+01
    0.11299745303940724739E+01
    0.11933224352293356763E+01
    0.11744327495703492659E+01
    0.11869810402991096687E+01
    0.11767571287677329739E+01
    0.11610275803836631603E+01
    0.11852415202382957649E+01
    0.11916803049954489691E+01
    0.70945594121901667251E+00
    0.68733207585484268343E+00
    0.64461510367652985476E+00
    0.78254853500741128336E+00
    0.76714431409734751277E+00
    0.64940189739056708440E+00
    0.65569382627247874140E+00
    0.11622813460823171461E+01
    0.11467684009956218283E+01
    0.11348144665158959032E+01
    0.11575987030412049350E+01
    0.11157143937966764735E+01
    0.11555884770941513562E+01
    0.11927767141285479102E+01
    0.11773427266749896258E+01
    0.11630974216880334282E+01
    0.11938572893381462769E+01
    0.11819194641628967268E+01
    0.11790522432871164416E+01
    0.11772286563079243926E+01
    0.11871438954140158817E+01
    0.11953562407153044411E+01
    0.11913044200314897303E+01
    0.85229361791325164432E+00
    0.95514649171980026132E+00
    0.85094346972013745756E+00
    0.94548059956102592505E+00
    0.10025981190127266629E+01
    0.11867286249590152103E+01
    0.11629279956517670769E+01
    0.11865122078695000685E+01
    0.11867520966985569686E+01
    0.11645105437223994826E+01
    0.11324826063181707703E+01
    0.11773284283107261494E+01
    0.11824624833201018426E+01
    0.11163728559457546385E+01
    0.11509606559771574652E+01
    0.11683380344619813673E+01
    0.11939828157042280399E+01
    0.11766232382558439173E+01
    0.11945665017285402865E+01
    0.11886463450542206211E+01
    0.10919155999016854075E+01
    0.11786856887518264436E+01
    0.11241388232369606826E+01
    0.11434122588720185831E+01
    0.11754211138964847372E+01
    0.11419779850123519260E+01
    0.11494363576940371807E+01
    0.11390808187695122822E+01
    0.11441042464537112266E+01
    0.11089341967398964606E+01
    0.83357035454984418354E+00
    0.10461174735816802794E+01
    0.91813633706112796062E+00
    0.88757769886381121527E+00
    0.10000151941851178616E+01
    0.82196013010504254126E+00
    0.75089979998048705934E+00
    0.83529380568128697160E+00
    0.75680225916571208788E+00
    0.90060837058849030345E+00
    0.10569229839317770825E+01
    0.11430687300577795362E+01
    0.11191316685527339381E+01
    0.11460456626684025760E+01
    0.11395678142038943026E+01
    0.11771515009107074157E+01
    0.11764465086028679242E+01
    0.11942703578262325870E+01
    0.11958478985847045273E+01
    0.11891182353831628582E+01
    0.11782609959919179143E+01
    0.11969857537840331574E+01
    0.11939927241054806295E+01
    0.11807251822552133902E+01
    0.10519886948725589715E+01
    0.10223530503457143315E+01
    0.10189191256570082622E+01
    0.11848242317964918779E+01
    0.11038477866166758190E+01
    0.11724401631965450932E+01
    0.74964802158658294662E+00
    0.79405628273833683828E+00
    0.92060319666391876581E+00
    0.90290454460957969562E+00
    0.91667074262661396578E+00
    0.10169303370576141532E+01
    0.10302940647946416952E+01
    0.10960883077508101202E+01
    0.11713563313352057804E+01
    0.12068325716645205148E+01
    0.12012882638831299253E+01
    0.12004524811789158978E+01
    0.11507995038957465894E+01
    0.11592737988558472484E+01
    0.11163285823576980516E+01
    0.11513531082945496209E+01
    0.11853783628974061681E+01
    0.10924963761540031904E+01
    0.11200054498490512600E+01
    0.11629503896319630663E+01
    0.11710088057799188377E+01
    0.88409364499521636560E+00
    0.77199227634726363956E+00
    0.72457545080005969496E+00
    0.11515882426459125298E+01
    0.10608346911001642621E+01
    0.10427343629065963793E+01
    0.12002227130442608694E+01
    0.11863788441467848500E+01
    0.11440927660470840976E+01
    0.11829065467298947034E+01
    0.11985392707885773600E+01
    0.11935081450127982272E+01
    0.10361822494153964946E+01
    0.10601471621385327726E+01
    0.84545547044568469808E+00
    0.11555698827444371712E+01
    0.11553018245667228125E+01
    0.11700335294944188558E+01
    0.80284447126083891000E+00
    0.78202901042353656358E+00
    0.66806014480660103061E+00
    0.75928958540824131873E+00
    0.69269656342315422126E+00
    0.64722585119379549834E+00
    0.11654048892195909559E+01
    0.11181468527852718164E+01
    0.11518584537589151573E+01
    0.11593856454813831203E+01
    0.11532300910043504771E+01
    0.11796980925447120292E+01
    0.12016761222573455470E+01
    0.11946109348060041100E+01
    0.10302333164399639642E+01
    0.11824781814584528483E+01
    0.11640202125546574852E+01
    0.10977596956889634772E+01
    0.11456114456197343809E+01
    0.11399314887366205351E+01
    0.10966615524384095703E+01
    0.11782310912564628591E+01
    0.11801362735725655639E+01
    0.99357793486933609906E+00
    0.10549885706768427074E+01
    0.67692683757105365228E+00
    0.70850327758335662764E+00
    0.11889087492177243810E+01
    0.11916092664611954710E+01
    0.62875063647297801950E+00
    0.63020820792637122221E+00
    0.12031860753499106220E+01
    0.10482937726152194990E+01
    0.10470420096609549532E+01
    0.11555667177511079746E+01
    0.86977058509955440524E+00
    0.11965551237960228015E+01
    0.11147361279128762401E+01
    0.93407798901205052466E+00
    0.11601573396878228639E+01
    0.11893352924599669418E+01
    0.11871584724816983680E+01
    0.11744158475600292579E+01
    0.11858314701813748027E+01
    0.87322395047293011050E+00
    0.95418115710967765786E+00
    0.11707820471046750388E+01
    0.12054375951187061844E+01
    0.11637739402285101065E+01
    0.11031213744746819483E+01
    0.11613205813738496364E+01
    0.11929036314344581005E+01
    0.10661570498446450994E+01
    0.10395258768741528765E+01
    0.82669676234457534214E+00
    0.77069478227882026733E+00
    0.11182806908558236003E+01
    0.10879834692233438798E+01
    0.63767587806917369608E+00
    0.63304982843409307591E+00
    0.71494503069947024088E+00
    0.70665116982591413830E+00
    0.10358543218715101641E+01
    0.11792336923881467925E+01
    0.12549585738666986234E+01
    0.12699526204061024615E+01
    0.12687388636800775998E+01
    0.12621826455356905949E+01
    0.12242431563885163293E+01
    0.11688106440413128517E+01
    0.12013660586691496945E+01
    0.11871800018322871129E+01
    0.11316539125185913761E+01
    0.10119945423233642767E+01
    0.83926312859986695880E+00
    0.69124623977623200766E+00
    0.63063580194684210056E+00
    0.64861538367315973996E+00
    0.65913913277553703995E+00
    0.65806977754603190878E+00
    0.63858331292787395839E+00
    0.62855095541570960016E+00
    0.64657472944066263221E+00
    0.83632572832488205616E+00
    0.87504121084290387156E+00
    0.85661870370567450017E+00
    0.80121503055582499186E+00
    0.71699029090052357471E+00
    0.64980068205348162635E+00
    0.63708909650972023186E+00
