# vtk DataFile Version 3.0
LAPLACIEN  2D
ASCII
DATASET UNSTRUCTURED_GRID
 POINTS         391  float
  0.50371505999999999       0.50367786999999997        0.0000000000000000     
  0.29013556000000001       0.29014535000000002        0.0000000000000000     
  0.70165584999999997       0.71206597999999999        0.0000000000000000     
  0.70304188999999995       0.30176619999999998        0.0000000000000000     
  0.30920671999999999       0.71149227999999998        0.0000000000000000     
  0.79044983999999996       0.49884783999999999        0.0000000000000000     
  0.49102621000000002       0.20968644000000000        0.0000000000000000     
  0.49912957000000002       0.77208717000000004        0.0000000000000000     
  0.21724072999999999       0.48989389000000000        0.0000000000000000     
  0.83255933999999998       0.83046598000000005        0.0000000000000000     
  0.16646774000000000       0.17015694000000001        0.0000000000000000     
  0.83054514999999995       0.16736480000000001        0.0000000000000000     
  0.16953130999999999       0.83265739000000005        0.0000000000000000     
  0.42166445000000002       0.36345201999999999        0.0000000000000000     
  0.64462200999999997       0.56347807999999999        0.0000000000000000     
  0.35324633999999999       0.56311191000000005        0.0000000000000000     
  0.65456411000000003       0.84856860999999995        0.0000000000000000     
  0.35141477999999998       0.15563974000000000        0.0000000000000000     
  0.15290967000000000       0.35206625000000003        0.0000000000000000     
  0.82942241000000005       0.34936866000000000        0.0000000000000000     
  0.84390527000000004       0.64441694999999999        0.0000000000000000     
  0.63699174999999997       0.14284276000000001        0.0000000000000000     
  0.15620682999999999       0.64648446999999998        0.0000000000000000     
  0.36426062999999997       0.85756310999999996        0.0000000000000000     
  0.63489340999999999       0.40519052000000000        0.0000000000000000     
  0.52518872999999999       0.65957078000000002        0.0000000000000000     
  0.32158959999999998       0.42298103999999997        0.0000000000000000     
  0.58861710000000000       0.31711036999999997        0.0000000000000000     
  0.42078418000000001       0.69497151999999995        0.0000000000000000     
  0.48608786999999998       0.89334152000000000        0.0000000000000000     
   9.7084320000000002E-002  0.50000000000000000        0.0000000000000000     
  0.90291568000000000       0.50000000000000000        0.0000000000000000     
  0.51392453000000005       0.10668648999999999        0.0000000000000000     
  0.59792566999999996       0.73122754000000001        0.0000000000000000     
  0.74510058999999995       0.41124730999999998        0.0000000000000000     
  0.73212551999999997       0.90191560000000004        0.0000000000000000     
   9.7784830000000003E-002  0.26957329000000002        0.0000000000000000     
  0.26711221000000002        9.8671499999999995E-002   0.0000000000000000     
  0.90191560000000004       0.26787448000000003        0.0000000000000000     
  0.90118569000000004       0.73039821000000005        0.0000000000000000     
  0.73122947000000005        9.8017859999999998E-002   0.0000000000000000     
   9.8084400000000002E-002  0.73212551999999997        0.0000000000000000     
  0.26957329000000002       0.90221516999999996        0.0000000000000000     
  0.39283522999999998       0.25360379000000000        0.0000000000000000     
  0.74480864000000002       0.60495284999999999        0.0000000000000000     
  0.25505132000000003       0.60593640999999998        0.0000000000000000     
  0.52159297999999998       0.40671636000000000        0.0000000000000000     
  0.40768852000000000       0.47699891000000000        0.0000000000000000     
   9.1467049999999994E-002   9.1876959999999994E-002   0.0000000000000000     
  0.90842484999999995       0.90819225000000003        0.0000000000000000     
  0.90820104999999995        9.1566729999999999E-002   0.0000000000000000     
   9.1807449999999999E-002  0.90843574000000005        0.0000000000000000     
  0.27098960000000000       0.20527094000000001        0.0000000000000000     
  0.73457293999999995       0.79835387000000002        0.0000000000000000     
  0.79817773000000003       0.25713470999999999        0.0000000000000000     
  0.20747797000000001       0.72863946000000002        0.0000000000000000     
  0.20175195000000001       0.27583914999999998        0.0000000000000000     
  0.79603889000000005       0.72159035000000005        0.0000000000000000     
  0.71761666000000002       0.19748431999999999        0.0000000000000000     
  0.28462607000000001       0.80251899999999998        0.0000000000000000     
  0.69134598999999997       0.49261972999999998        0.0000000000000000     
  0.44720578999999999       0.58582935999999997        0.0000000000000000     
  0.24242269999999999       0.37228174000000003        0.0000000000000000     
  0.38265623999999998       0.93072131999999996        0.0000000000000000     
  0.60971754000000000       0.91988369000000003        0.0000000000000000     
   7.9163609999999995E-002  0.60979116000000000        0.0000000000000000     
  0.92010649000000000       0.61081183999999999        0.0000000000000000     
  0.61954008999999999        7.1530830000000004E-002   0.0000000000000000     
  0.91882012999999996       0.38917363999999999        0.0000000000000000     
  0.39086346000000000        8.0652249999999995E-002   0.0000000000000000     
   7.9183480000000001E-002  0.38966213000000000        0.0000000000000000     
  0.59114111999999996       0.49294315000000000        0.0000000000000000     
  0.63337980999999999       0.64485914000000000        0.0000000000000000     
  0.50012352000000004       0.29676539000000002        0.0000000000000000     
  0.82552601000000003       0.92753492000000004        0.0000000000000000     
  0.92774772999999999       0.82498556999999995        0.0000000000000000     
   7.1970870000000006E-002  0.17510291000000000        0.0000000000000000     
  0.17422821999999999        7.2635640000000001E-002   0.0000000000000000     
  0.82510813000000005        7.2134840000000006E-002   0.0000000000000000     
  0.92754665000000003       0.17446275999999999        0.0000000000000000     
  0.17501022999999999       0.92789951999999998        0.0000000000000000     
   7.2464680000000004E-002  0.82554053000000005        0.0000000000000000     
  0.30731587999999999       0.50885354999999999        0.0000000000000000     
  0.59033407999999998       0.22171178999999999        0.0000000000000000     
  0.40109191999999999       0.78725542000000004        0.0000000000000000     
  0.35420917000000002       0.63754104000000000        0.0000000000000000     
  0.15983976999999999       0.56665573000000002        0.0000000000000000     
  0.84108459999999996       0.56757886999999996        0.0000000000000000     
  0.83902096000000004       0.43344338999999998        0.0000000000000000     
  0.43230028999999998       0.16004268999999999        0.0000000000000000     
  0.57536027999999995       0.83041363999999995        0.0000000000000000     
  0.15771898000000001       0.42747892999999998        0.0000000000000000     
  0.34021692999999997       0.34221559000000001        0.0000000000000000     
  0.56002271999999997       0.57501117999999996        0.0000000000000000     
  0.65344329000000001       0.78147597999999996        0.0000000000000000     
   0.0000000000000000        0.0000000000000000        0.0000000000000000     
   1.0000000000000000        0.0000000000000000        0.0000000000000000     
   1.0000000000000000        1.0000000000000000        0.0000000000000000     
   0.0000000000000000        1.0000000000000000        0.0000000000000000     
  0.11111111000000000        0.0000000000000000        0.0000000000000000     
  0.22222222000000000        0.0000000000000000        0.0000000000000000     
  0.33333332999999998        0.0000000000000000        0.0000000000000000     
  0.44444444000000000        0.0000000000000000        0.0000000000000000     
  0.55555555999999995        0.0000000000000000        0.0000000000000000     
  0.66666667000000002        0.0000000000000000        0.0000000000000000     
  0.77777777999999997        0.0000000000000000        0.0000000000000000     
  0.88888889000000004        0.0000000000000000        0.0000000000000000     
   1.0000000000000000       0.11111111000000000        0.0000000000000000     
   1.0000000000000000       0.22222222000000000        0.0000000000000000     
   1.0000000000000000       0.33333332999999998        0.0000000000000000     
   1.0000000000000000       0.44444444000000000        0.0000000000000000     
   1.0000000000000000       0.55555555999999995        0.0000000000000000     
   1.0000000000000000       0.66666667000000002        0.0000000000000000     
   1.0000000000000000       0.77777777999999997        0.0000000000000000     
   1.0000000000000000       0.88888889000000004        0.0000000000000000     
  0.88888889000000004        1.0000000000000000        0.0000000000000000     
  0.77777777999999997        1.0000000000000000        0.0000000000000000     
  0.66666667000000002        1.0000000000000000        0.0000000000000000     
  0.55555555999999995        1.0000000000000000        0.0000000000000000     
  0.44444444000000000        1.0000000000000000        0.0000000000000000     
  0.33333332999999998        1.0000000000000000        0.0000000000000000     
  0.22222222000000000        1.0000000000000000        0.0000000000000000     
  0.11111111000000000        1.0000000000000000        0.0000000000000000     
   0.0000000000000000       0.11111111000000000        0.0000000000000000     
   0.0000000000000000       0.22222222000000000        0.0000000000000000     
[...]
 CELL_DATA         354
 SCALARS C float
 LOOKUP_TABLE default
    0.85102299546598447755E+00
    0.11227463262969850089E+01
    0.64791950902741701768E+00
    0.69431526088461625879E+00
    0.94936566368055319565E+00
    0.10361925117527956974E+01
    0.11375322076653211489E+01
    0.10994813787704982300E+01
    0.11757704453068702488E+01
    0.11780916473080238482E+01
    0.11598766215287221737E+01
    0.11770258862082978446E+01
    0.11572840052693373902E+01
    0.11570950912199808869E+01
    0.11634656284553870353E+01
    0.11575324141414631285E+01
    0.11622819416590060015E+01
    0.11764936924903499627E+01
    0.11764838919949411888E+01
    0.11717086446209101780E+01
    0.11613186257438692373E+01
    0.11625984110864520105E+01
    0.11812107571945011930E+01
    0.11726062464170374788E+01
    0.11816770585901505974E+01
    0.11782063098636594844E+01
    0.11787624871359232426E+01
    0.11798498766021197071E+01
    0.11465405325531912162E+01
    0.10997232305059916335E+01
    0.94656484193623857681E+00
    0.10377540189200180620E+01
    0.85466342714626297727E+00
    0.76043025071209946475E+00
    0.65773447288400577193E+00
    0.69871564712357892013E+00
    0.64704227042769280054E+00
    0.65544340827944580496E+00
    0.69809319520755352961E+00
    0.66772361605092067638E+00
    0.71124422058730818463E+00
    0.71429218379343173417E+00
    0.73068006312344691011E+00
    0.71926156253498563231E+00
    0.72078500988469840216E+00
    0.68394050563955999245E+00
    0.65732364425346800907E+00
    0.66808898055838961128E+00
    0.64972947323500251926E+00
    0.63688076836731521979E+00
    0.65876136322687040003E+00
    0.64760507007322898332E+00
    0.88634029167094308121E+00
    0.90647905230976466573E+00
    0.97441481759084658254E+00
    0.93531783291807391034E+00
    0.98013444396015270144E+00
    0.95618380490119037063E+00
    0.91311237343323714555E+00
    0.93528072060195210913E+00
    0.87101126110503857003E+00
    0.80437460389830151009E+00
    0.70476661062418466397E+00
    0.75448726174158797786E+00
    0.67146316648578885378E+00
    0.64024042340042053301E+00
    0.65205597231837242322E+00
    0.64293704426602316104E+00
    0.11449963675205945268E+01
    0.11687941978875093785E+01
    0.11757167246918387438E+01
    0.11584201679614614111E+01
    0.11720166236279538907E+01
    0.11655684552738150295E+01
    0.11899933920058394232E+01
    0.11937198691545503060E+01
    0.11974512006875333014E+01
    0.11795236591548461380E+01
    0.11592733605161094079E+01
    0.11835542607084554856E+01
    0.11029851114984472460E+01
    0.11304442431683472403E+01
    0.11885414056454346454E+01
    0.11225378607273621689E+01
    0.11535641954275870358E+01
    0.11211318599639437110E+01
    0.10468158724670904025E+01
    0.11458962354404320649E+01
    0.11473265313241463037E+01
    0.11374085947680101505E+01
    0.10932756082691024169E+01
    0.11295462038155572593E+01
    0.11001285181837427984E+01
    0.98964201993791400813E+00
    0.96681224120137365663E+00
    0.10429186598761155391E+01
    0.11394342710960456699E+01
    0.11974031338543968950E+01
    0.11678435221726033433E+01
    0.11914331995721978430E+01
    0.11776916251248725764E+01
    0.11962596571605028650E+01
    0.11939632252845768789E+01
    0.11370973953347376373E+01
    0.11355229354347824433E+01
    0.11006091564663718074E+01
    0.10997430791310591758E+01
    0.11351996913879056628E+01
    0.11524060517068919207E+01
    0.11290746645985534347E+01
    0.97236960901630464793E+00
    0.11251344068954236555E+01
    0.10469723274711539851E+01
    0.10344287956292212982E+01
    0.11892551389204677470E+01
    0.11184258117816820999E+01
    0.11667794199743721784E+01
    0.11899335926810046260E+01
    0.11991928654011974054E+01
    0.11281294888154638212E+01
    0.11674341295981884858E+01
    0.81788055936687298342E+00
    0.91400461855000103562E+00
    0.74897138067230584202E+00
    0.93104614931822071711E+00
    0.98760368242570617525E+00
    0.75790680988100800342E+00
    0.80443602537272185238E+00
    0.11291464262638835070E+01
    0.11767234365160943454E+01
    0.10893897184536345257E+01
    0.11934242179897347480E+01
    0.11852741218981173166E+01
    0.10947171296964677278E+01
    0.11326728656553579633E+01
    0.11943005322066662099E+01
    0.11750056616282253952E+01
    0.11884727375827508489E+01
    0.11774751747717941974E+01
    0.11616014244435970415E+01
    0.11862549893538609780E+01
    0.11928030563636140560E+01
    0.71738988483215448966E+00
    0.69541661472821325596E+00
    0.65280577371709502810E+00
    0.78992844088738445318E+00
    0.77465712478678461217E+00
    0.65760999088030802628E+00
    0.66390854733380200159E+00
    0.11628345015184047284E+01
    0.11464593345339197938E+01
    0.11356096802434043624E+01
    0.11577157730195233309E+01
    0.11165453704218901709E+01
    0.11556345463740276269E+01
    0.11938109417646649568E+01
    0.11780043527582479967E+01
    0.11638733464119448424E+01
    0.11948817466035090984E+01
    0.11828361503993858328E+01
    0.11818051224578931535E+01
    0.11782735306385589968E+01
    0.11883593463030754922E+01
    0.11966612682868140727E+01
    0.11941624075110170988E+01
    0.85909232062186891010E+00
    0.96079319035751886702E+00
    0.85787147372507144283E+00
    0.95101253372289407118E+00
    0.10074063729770621478E+01
    0.11877701717748305743E+01
    0.11634483080093329654E+01
    0.11875851641240204870E+01
    0.11872593846588550548E+01
    0.11648359367377960627E+01
    0.11352394575554929368E+01
    0.11807854680142189086E+01
    0.11855389013827108968E+01
    0.11187041868579710169E+01
    0.11543616833350802686E+01
    0.11686633804885304677E+01
    0.11947240069524651673E+01
    0.11770712176267539295E+01
    0.11955656142991668567E+01
    0.11896304182977792685E+01
    0.10946717551078422037E+01
    0.11815757099828636534E+01
    0.11270796909727389679E+01
    0.11467980272106255146E+01
    0.11785654527601738817E+01
    0.11415812736500110525E+01
    0.11496636612587929349E+01
    0.11385331597704582141E+01
    0.11443346129797651312E+01
    0.11088837541287377420E+01
    0.84062471190786980380E+00
    0.10495210775278318582E+01
    0.92393969499867623085E+00
    0.89409382186388564051E+00
    0.10042036926442827749E+01
    0.82866773882407573915E+00
    0.75869537711366863419E+00
    0.84213189891119621944E+00
    0.76440061850733254101E+00
    0.90648307013833517853E+00
    0.10563319177971615126E+01
    0.11437234673238936278E+01
    0.11195201472244491470E+01
    0.11463352404427324949E+01
    0.11401464936213856483E+01
    0.11801769489258691070E+01
    0.11795435466212751408E+01
    0.11957192671576297727E+01
    0.11973682811563590711E+01
    0.11901119236447721406E+01
    0.11787647596193808752E+01
    0.11979750769757182560E+01
    0.11948810847831681237E+01
    0.11811787670692708296E+01
    0.10501875714489605773E+01
    0.10186368876231191027E+01
    0.10147606128664490299E+01
    0.11874942518481934606E+01
    0.11051186340965970523E+01
    0.11765611584416002522E+01
    0.75725745302478719712E+00
    0.80129317474012418110E+00
    0.92644784706619853765E+00
    0.90899345704103584609E+00
    0.92266576963302815440E+00
    0.10210345652950625350E+01
    0.10333695539206932956E+01
    0.10997222586306296677E+01
    0.11737343283786567660E+01
    0.12088293674189274363E+01
    0.12035554915633277506E+01
    0.12017479706397762307E+01
    0.11510330186406634301E+01
    0.11601003913270524492E+01
    0.11167582434628919863E+01
    0.11513345417697338213E+01
    0.11882998235333750436E+01
    0.10946602962796971870E+01
    0.11225682839123962697E+01
    0.11631138181369500284E+01
    0.11720528077628595831E+01
    0.89043897598302801377E+00
    0.77953783041124757869E+00
    0.73238469057848842869E+00
    0.11553378994274086100E+01
    0.10636647901903328872E+01
    0.10453335255111695368E+01
    0.12020874305243300917E+01
    0.11875517373620292361E+01
    0.11472647631080263864E+01
    0.11840219515524821325E+01
    0.11996522935174116498E+01
    0.11948231493619798638E+01
    0.10398544955231139308E+01
    0.10638617636041143300E+01
    0.85207125498460167812E+00
    0.11557927830984175976E+01
    0.11559927961419225184E+01
    0.11711999003617685755E+01
    0.81006874159844211025E+00
    0.78949369479575759456E+00
    0.67622644881116267257E+00
    0.76689882856847957360E+00
    0.70087671969485687562E+00
    0.65541224265937136906E+00
    0.11667389409282526991E+01
    0.11185090749307637914E+01
    0.11517677836781630152E+01
    0.11593862583559559898E+01
    0.11564429595638174852E+01
    0.11809659835210555290E+01
    0.12030154337969167777E+01
    0.11964026461619889918E+01
    0.10337505029413751600E+01
    0.11853979966879555352E+01
    0.11680012243838406860E+01
    0.11003300837129692535E+01
    0.11460567897013536065E+01
    0.11402323599369907914E+01
    0.10960442479565708496E+01
    0.11790329457915027511E+01
    0.11811596781194322325E+01
    0.99837851585396342191E+00
    0.10580771436624940574E+01
    0.68516021961646311755E+00
    0.71657207086012131292E+00
    0.11913722736796799051E+01
    0.11938551150361331743E+01
    0.63659333014431285225E+00
    0.63820962492111144027E+00
    0.12051677077411615535E+01
    0.10516816854671056092E+01
    0.10506349815625541932E+01
    0.11555515446791058132E+01
    0.87632226631586451759E+00
    0.11985383874468567011E+01
    0.11156205539513859293E+01
    0.93958983195947864964E+00
    0.11602294307189306988E+01
    0.11918619143890767376E+01
    0.11881050029193165329E+01
    0.11778236507951831413E+01
    0.11868676324816731515E+01
    0.87977640110234500703E+00
    0.95983301782799035351E+00
    0.11740759131735374332E+01
    0.12066156738040061391E+01
    0.11643990290266956755E+01
    0.11060276236629158486E+01
    0.11621401429594411248E+01
    0.11939402262983056513E+01
    0.10645765622950602580E+01
    0.10434231927805983631E+01
    0.83359328458054238187E+00
    0.77799131915355235201E+00
    0.11211183834737759035E+01
    0.10904262105292430451E+01
    0.64547090530858253210E+00
    0.64071672098105481030E+00
    0.72054432760662512347E+00
    0.71221164052903662700E+00
    0.10392740942893383682E+01
    0.11815454989749576420E+01
    0.12554459802323334472E+01
    0.12692462495983762860E+01
    0.12677557237064345230E+01
    0.12621311431674389070E+01
    0.12260407635556291872E+01
    0.11710653930653065480E+01
    0.12036412557662914402E+01
    0.11895221977859775642E+01
    0.11339484539131454710E+01
    0.10159777347422178639E+01
    0.84585207016372532252E+00
    0.69927327278667128496E+00
    0.63878610127083335080E+00
    0.65683424150593250346E+00
    0.66735705493479380301E+00
    0.66626241269073172013E+00
    0.64682304007205992935E+00
    0.63655002735273946701E+00
    0.65379143104629899863E+00
    0.84297509889118449333E+00
    0.88123262745195951595E+00
    0.86303792802295187236E+00
    0.80821577159439950133E+00
    0.72480876770638791307E+00
    0.65796092232737979355E+00
    0.64469869972661530966E+00
