# vtk DataFile Version 3.0
LAPLACIEN  2D
ASCII
DATASET UNSTRUCTURED_GRID
 POINTS         391  float
  0.50371505999999999       0.50367786999999997        0.0000000000000000     
  0.29013556000000001       0.29014535000000002        0.0000000000000000     
  0.70165584999999997       0.71206597999999999        0.0000000000000000     
  0.70304188999999995       0.30176619999999998        0.0000000000000000     
  0.30920671999999999       0.71149227999999998        0.0000000000000000     
  0.79044983999999996       0.49884783999999999        0.0000000000000000     
  0.49102621000000002       0.20968644000000000        0.0000000000000000     
  0.49912957000000002       0.77208717000000004        0.0000000000000000     
  0.21724072999999999       0.48989389000000000        0.0000000000000000     
  0.83255933999999998       0.83046598000000005        0.0000000000000000     
  0.16646774000000000       0.17015694000000001        0.0000000000000000     
  0.83054514999999995       0.16736480000000001        0.0000000000000000     
  0.16953130999999999       0.83265739000000005        0.0000000000000000     
  0.42166445000000002       0.36345201999999999        0.0000000000000000     
  0.64462200999999997       0.56347807999999999        0.0000000000000000     
  0.35324633999999999       0.56311191000000005        0.0000000000000000     
  0.65456411000000003       0.84856860999999995        0.0000000000000000     
  0.35141477999999998       0.15563974000000000        0.0000000000000000     
  0.15290967000000000       0.35206625000000003        0.0000000000000000     
  0.82942241000000005       0.34936866000000000        0.0000000000000000     
  0.84390527000000004       0.64441694999999999        0.0000000000000000     
  0.63699174999999997       0.14284276000000001        0.0000000000000000     
  0.15620682999999999       0.64648446999999998        0.0000000000000000     
  0.36426062999999997       0.85756310999999996        0.0000000000000000     
  0.63489340999999999       0.40519052000000000        0.0000000000000000     
  0.52518872999999999       0.65957078000000002        0.0000000000000000     
  0.32158959999999998       0.42298103999999997        0.0000000000000000     
  0.58861710000000000       0.31711036999999997        0.0000000000000000     
  0.42078418000000001       0.69497151999999995        0.0000000000000000     
  0.48608786999999998       0.89334152000000000        0.0000000000000000     
   9.7084320000000002E-002  0.50000000000000000        0.0000000000000000     
  0.90291568000000000       0.50000000000000000        0.0000000000000000     
  0.51392453000000005       0.10668648999999999        0.0000000000000000     
  0.59792566999999996       0.73122754000000001        0.0000000000000000     
  0.74510058999999995       0.41124730999999998        0.0000000000000000     
  0.73212551999999997       0.90191560000000004        0.0000000000000000     
   9.7784830000000003E-002  0.26957329000000002        0.0000000000000000     
  0.26711221000000002        9.8671499999999995E-002   0.0000000000000000     
  0.90191560000000004       0.26787448000000003        0.0000000000000000     
  0.90118569000000004       0.73039821000000005        0.0000000000000000     
  0.73122947000000005        9.8017859999999998E-002   0.0000000000000000     
   9.8084400000000002E-002  0.73212551999999997        0.0000000000000000     
  0.26957329000000002       0.90221516999999996        0.0000000000000000     
  0.39283522999999998       0.25360379000000000        0.0000000000000000     
  0.74480864000000002       0.60495284999999999        0.0000000000000000     
  0.25505132000000003       0.60593640999999998        0.0000000000000000     
  0.52159297999999998       0.40671636000000000        0.0000000000000000     
  0.40768852000000000       0.47699891000000000        0.0000000000000000     
   9.1467049999999994E-002   9.1876959999999994E-002   0.0000000000000000     
  0.90842484999999995       0.90819225000000003        0.0000000000000000     
  0.90820104999999995        9.1566729999999999E-002   0.0000000000000000     
   9.1807449999999999E-002  0.90843574000000005        0.0000000000000000     
  0.27098960000000000       0.20527094000000001        0.0000000000000000     
  0.73457293999999995       0.79835387000000002        0.0000000000000000     
  0.79817773000000003       0.25713470999999999        0.0000000000000000     
  0.20747797000000001       0.72863946000000002        0.0000000000000000     
  0.20175195000000001       0.27583914999999998        0.0000000000000000     
  0.79603889000000005       0.72159035000000005        0.0000000000000000     
  0.71761666000000002       0.19748431999999999        0.0000000000000000     
  0.28462607000000001       0.80251899999999998        0.0000000000000000     
  0.69134598999999997       0.49261972999999998        0.0000000000000000     
  0.44720578999999999       0.58582935999999997        0.0000000000000000     
  0.24242269999999999       0.37228174000000003        0.0000000000000000     
  0.38265623999999998       0.93072131999999996        0.0000000000000000     
  0.60971754000000000       0.91988369000000003        0.0000000000000000     
   7.9163609999999995E-002  0.60979116000000000        0.0000000000000000     
  0.92010649000000000       0.61081183999999999        0.0000000000000000     
  0.61954008999999999        7.1530830000000004E-002   0.0000000000000000     
  0.91882012999999996       0.38917363999999999        0.0000000000000000     
  0.39086346000000000        8.0652249999999995E-002   0.0000000000000000     
   7.9183480000000001E-002  0.38966213000000000        0.0000000000000000     
  0.59114111999999996       0.49294315000000000        0.0000000000000000     
  0.63337980999999999       0.64485914000000000        0.0000000000000000     
  0.50012352000000004       0.29676539000000002        0.0000000000000000     
  0.82552601000000003       0.92753492000000004        0.0000000000000000     
  0.92774772999999999       0.82498556999999995        0.0000000000000000     
   7.1970870000000006E-002  0.17510291000000000        0.0000000000000000     
  0.17422821999999999        7.2635640000000001E-002   0.0000000000000000     
  0.82510813000000005        7.2134840000000006E-002   0.0000000000000000     
  0.92754665000000003       0.17446275999999999        0.0000000000000000     
  0.17501022999999999       0.92789951999999998        0.0000000000000000     
   7.2464680000000004E-002  0.82554053000000005        0.0000000000000000     
  0.30731587999999999       0.50885354999999999        0.0000000000000000     
  0.59033407999999998       0.22171178999999999        0.0000000000000000     
  0.40109191999999999       0.78725542000000004        0.0000000000000000     
  0.35420917000000002       0.63754104000000000        0.0000000000000000     
  0.15983976999999999       0.56665573000000002        0.0000000000000000     
  0.84108459999999996       0.56757886999999996        0.0000000000000000     
  0.83902096000000004       0.43344338999999998        0.0000000000000000     
  0.43230028999999998       0.16004268999999999        0.0000000000000000     
  0.57536027999999995       0.83041363999999995        0.0000000000000000     
  0.15771898000000001       0.42747892999999998        0.0000000000000000     
  0.34021692999999997       0.34221559000000001        0.0000000000000000     
  0.56002271999999997       0.57501117999999996        0.0000000000000000     
  0.65344329000000001       0.78147597999999996        0.0000000000000000     
   0.0000000000000000        0.0000000000000000        0.0000000000000000     
   1.0000000000000000        0.0000000000000000        0.0000000000000000     
   1.0000000000000000        1.0000000000000000        0.0000000000000000     
   0.0000000000000000        1.0000000000000000        0.0000000000000000     
  0.11111111000000000        0.0000000000000000        0.0000000000000000     
  0.22222222000000000        0.0000000000000000        0.0000000000000000     
  0.33333332999999998        0.0000000000000000        0.0000000000000000     
  0.44444444000000000        0.0000000000000000        0.0000000000000000     
  0.55555555999999995        0.0000000000000000        0.0000000000000000     
  0.66666667000000002        0.0000000000000000        0.0000000000000000     
  0.77777777999999997        0.0000000000000000        0.0000000000000000     
  0.88888889000000004        0.0000000000000000        0.0000000000000000     
   1.0000000000000000       0.11111111000000000        0.0000000000000000     
   1.0000000000000000       0.22222222000000000        0.0000000000000000     
   1.0000000000000000       0.33333332999999998        0.0000000000000000     
   1.0000000000000000       0.44444444000000000        0.0000000000000000     
   1.0000000000000000       0.55555555999999995        0.0000000000000000     
   1.0000000000000000       0.66666667000000002        0.0000000000000000     
   1.0000000000000000       0.77777777999999997        0.0000000000000000     
   1.0000000000000000       0.88888889000000004        0.0000000000000000     
  0.88888889000000004        1.0000000000000000        0.0000000000000000     
  0.77777777999999997        1.0000000000000000        0.0000000000000000     
  0.66666667000000002        1.0000000000000000        0.0000000000000000     
  0.55555555999999995        1.0000000000000000        0.0000000000000000     
  0.44444444000000000        1.0000000000000000        0.0000000000000000     
  0.33333332999999998        1.0000000000000000        0.0000000000000000     
  0.22222222000000000        1.0000000000000000        0.0000000000000000     
  0.11111111000000000        1.0000000000000000        0.0000000000000000     
   0.0000000000000000       0.11111111000000000        0.0000000000000000     
   0.0000000000000000       0.22222222000000000        0.0000000000000000     
[...]
 CELL_DATA         354
 SCALARS C float
 LOOKUP_TABLE default
    0.74257836198289517426E+00
    0.11472084525669878907E+01
    0.51938764181819496724E+00
    0.59887415922209741304E+00
    0.85995254815949606630E+00
    0.97492736769791499274E+00
    0.12363173703885235177E+01
    0.11079611981541663823E+01
    0.13430352007946946280E+01
    0.14129520611214658743E+01
    0.14770950976933590049E+01
    0.14632963895789001807E+01
    0.14867747463301819177E+01
    0.14906532996055925633E+01
    0.14830679886483371099E+01
    0.14874880682913207419E+01
    0.14545745750103376004E+01
    0.14091346575987917511E+01
    0.12603981339550023311E+01
    0.13339701962259793433E+01
    0.12175922214818855061E+01
    0.12549056639426590110E+01
    0.13382697962929315239E+01
    0.12993067993516116410E+01
    0.13476091806474748136E+01
    0.13274964715838755147E+01
    0.12580621024464306856E+01
    0.12961969994316260291E+01
    0.11854438782334622005E+01
    0.10803731605888486911E+01
    0.85786199553593089906E+00
    0.97265657410608730160E+00
    0.74684241252484140361E+00
    0.63491137096411376373E+00
    0.52209884460887312496E+00
    0.56620693693247692302E+00
    0.51321291124212231605E+00
    0.52081291699013709806E+00
    0.56550114432492726291E+00
    0.53174147420432615885E+00
    0.58019786959340058363E+00
    0.58340281735946386554E+00
    0.60217742462309675755E+00
    0.58864819530647305434E+00
    0.59079191394203034449E+00
    0.54847538892254421583E+00
    0.52190264708130662541E+00
    0.53281453456767891019E+00
    0.51710620224683445656E+00
    0.50781565392677641135E+00
    0.54727819363114760254E+00
    0.52843198826180703964E+00
    0.78360715874506836620E+00
    0.80696732815478433576E+00
    0.88963544853436349324E+00
    0.84140521165133119741E+00
    0.89814802005737515156E+00
    0.86861266764354294612E+00
    0.81620919939420499833E+00
    0.84280832227815771773E+00
    0.76645739741232488118E+00
    0.68656701492760530137E+00
    0.57234705362904447767E+00
    0.62942307716502821080E+00
    0.53719555203782554109E+00
    0.50594003711954871338E+00
    0.53690985363382637274E+00
    0.51794884529932128103E+00
    0.14362370448940275924E+01
    0.14890364857157158962E+01
    0.14862884260694633198E+01
    0.14736108766486151200E+01
    0.14936307587812147624E+01
    0.14870569874492765017E+01
    0.14674234657580380592E+01
    0.14246246876920771740E+01
    0.14525383499619948235E+01
    0.14914533215590719539E+01
    0.12189037042125447918E+01
    0.13100697651868749016E+01
    0.10741555513943490396E+01
    0.11585591897894258473E+01
    0.13179348565121822290E+01
    0.11212562516947999214E+01
    0.14457282306548397965E+01
    0.13226921392358375051E+01
    0.11986631454296245991E+01
    0.14153490385072322599E+01
    0.14367439196362534748E+01
    0.13842585362626556034E+01
    0.12651382150302064034E+01
    0.11265245285263503217E+01
    0.10888680954238871834E+01
    0.91829639399049911574E+00
    0.88525607564163188989E+00
    0.98649081828721207899E+00
    0.11634286623970639951E+01
    0.14235745702311231042E+01
    0.14889307865221796945E+01
    0.14543182856799476976E+01
    0.14908508954075869735E+01
    0.14215107866763330158E+01
    0.14804492004832983110E+01
    0.14111853040262252179E+01
    0.14052191460890162134E+01
    0.12981114575825212221E+01
    0.12987406209281726621E+01
    0.14289307333562883962E+01
    0.12289976676672642597E+01
    0.11539132030334484647E+01
    0.89092927382748987597E+00
    0.11437110789792266363E+01
    0.99889177328519096477E+00
    0.98209324389560803681E+00
    0.13960895638858910051E+01
    0.11026029006748534478E+01
    0.12238974315894801670E+01
    0.13501669962331823704E+01
    0.13500333420348606950E+01
    0.11284232293675715564E+01
    0.12222015420411365128E+01
    0.70353834557027838947E+00
    0.81976252724913267755E+00
    0.62319188362961597250E+00
    0.84059787040474109876E+00
    0.91072704984607777412E+00
    0.63404380224446132974E+00
    0.68780841740432996367E+00
    0.11354432171667840912E+01
    0.12897761195070880369E+01
    0.10503264865559340802E+01
    0.13398137307826660791E+01
    0.12784274006030682536E+01
    0.10544624970581784051E+01
    0.11572015123330996467E+01
    0.14704202430141806168E+01
    0.14931941050701214024E+01
    0.14137757038356064676E+01
    0.14921783829590824499E+01
    0.14796125059142357649E+01
    0.14598788350482889697E+01
    0.14292313975233497114E+01
    0.58645322117885112512E+00
    0.56165843962377837162E+00
    0.51887995117427343494E+00
    0.67090470299064586257E+00
    0.65259777911161220842E+00
    0.52219242780931052206E+00
    0.52823098862537953835E+00
    0.14797603590402688134E+01
    0.14418866717305074410E+01
    0.13889555490810003846E+01
    0.14697335896206924488E+01
    0.13489342775168235988E+01
    0.14766772715869194155E+01
    0.14630837286167617250E+01
    0.14935243736574741469E+01
    0.14893868023479976959E+01
    0.14587065390108686636E+01
    0.14918913752927616123E+01
    0.13051132053559415525E+01
    0.14620134064490877268E+01
    0.14350520047251271727E+01
    0.14089757984350990139E+01
    0.13457013071029573226E+01
    0.75250171719377900725E+00
    0.87743873344081513288E+00
    0.75036625943012469353E+00
    0.86617697594509390768E+00
    0.93618645315403736795E+00
    0.14440835050363678427E+01
    0.14881733065770785807E+01
    0.14740562892083841628E+01
    0.14868680605826509744E+01
    0.14910631822679174530E+01
    0.11422116960550510179E+01
    0.12771026025517542291E+01
    0.13110959696839064037E+01
    0.11002313629956779195E+01
    0.12007482287294595213E+01
    0.14838971070515440953E+01
    0.14788380756619643464E+01
    0.14906981595576704880E+01
    0.14630138653693331996E+01
    0.14903185224876525083E+01
    0.10564269169338831311E+01
    0.12996935287384638880E+01
    0.11491427999350940503E+01
    0.11591701536539118500E+01
    0.12826588215339564947E+01
    0.14431871677432166479E+01
    0.14718327784936473535E+01
    0.14274828953016971411E+01
    0.14712644659845115491E+01
    0.13577850130492139513E+01
    0.73022554310847986869E+00
    0.99310323705704828257E+00
    0.83223381383348549178E+00
    0.79430878048571595951E+00
    0.93471676053687646757E+00
    0.71684953247347082961E+00
    0.63303556445262731955E+00
    0.73182057540887934799E+00
    0.63980474209234716731E+00
    0.81046027321561486811E+00
    0.12141613026341810944E+01
    0.14089890792189221358E+01
    0.13227827255583739507E+01
    0.14304500064452574382E+01
    0.14066578674046024133E+01
    0.13038510947436754428E+01
    0.12911317139878932814E+01
    0.14173779352855220282E+01
    0.13931595640583678275E+01
    0.14434180479749945114E+01
    0.14919841930616226655E+01
    0.14497901496234268937E+01
    0.14503673763050697332E+01
    0.14919638523209930447E+01
    0.12046783384538399808E+01
    0.11438333754547564958E+01
    0.11375145221315192678E+01
    0.13493620205684937474E+01
    0.10809407824984775814E+01
    0.12570969443599375737E+01
    0.63190507112313032412E+00
    0.68328353245112705139E+00
    0.83394669036188551203E+00
    0.81341825873132889146E+00
    0.82843365303362337393E+00
    0.95223283885842469054E+00
    0.97628970280547144878E+00
    0.10698562218365106347E+01
    0.12322279858835774036E+01
    0.13736514737158100896E+01
    0.13494448653946271577E+01
    0.14265782440171133061E+01
    0.14859347145737493712E+01
    0.14887077245340236686E+01
    0.13682740553441954390E+01
    0.14741935178113909632E+01
    0.13126906967959033334E+01
    0.10593674661098211320E+01
    0.11170997569633303037E+01
    0.14776077326303218573E+01
    0.14891913199424691161E+01
    0.79136933412977894520E+00
    0.65730340496991468413E+00
    0.60376107106378584799E+00
    0.12069305566178991640E+01
    0.10113520764030348165E+01
    0.98994926520185488883E+00
    0.14046700235210427543E+01
    0.14306635891589383203E+01
    0.12277073853717750396E+01
    0.14832727698215057988E+01
    0.14258489667344720342E+01
    0.14061040428017523851E+01
    0.98340474730051319341E+00
    0.10082649716510316829E+01
    0.74468376910353351050E+00
    0.14761084298190854103E+01
    0.14954194412648587065E+01
    0.14696557097512472634E+01
    0.69440742181492332019E+00
    0.66939297888039372975E+00
    0.54164370019713614646E+00
    0.64360018917325223509E+00
    0.56701823770934134394E+00
    0.52010898195940924449E+00
    0.14780708927270629349E+01
    0.13642561916659639021E+01
    0.14681691778641905444E+01
    0.14844575066210980996E+01
    0.12494123152727085735E+01
    0.14711096859267736026E+01
    0.14079608283868998431E+01
    0.13840376005614314359E+01
    0.97455781156258836084E+00
    0.13074617225719742386E+01
    0.12273358826832199142E+01
    0.10865600565754574003E+01
    0.14392119856153438029E+01
    0.14079332164893438861E+01
    0.12738241874369817808E+01
    0.14833950488604052964E+01
    0.14660221083173534673E+01
    0.92054515295942751507E+00
    0.10097615073629930826E+01
    0.55046670790484442115E+00
    0.58542412882525096673E+00
    0.13799982365076537416E+01
    0.13452606647507394655E+01
    0.50680455358563580859E+00
    0.50647932882651791608E+00
    0.13958905790025635252E+01
    0.10038090194953510625E+01
    0.99484593050237624112E+00
    0.14645838419629237936E+01
    0.77311761072835416542E+00
    0.13809394721548433616E+01
    0.13402833227301760299E+01
    0.85078546567988166949E+00
    0.14747209760500528120E+01
    0.13684920941306626396E+01
    0.14772185187124413641E+01
    0.12950499734566378596E+01
    0.14701168857624633546E+01
    0.77767362587679667030E+00
    0.87460725525682647685E+00
    0.12502994575791119836E+01
    0.14478635987517334272E+01
    0.14895874379293376766E+01
    0.10788967550507926330E+01
    0.14889425604108490475E+01
    0.14554796644311256415E+01
    0.12016804499028217457E+01
    0.98308876262974376203E+00
    0.72146541482871096029E+00
    0.65556609644282826110E+00
    0.11036443835438503047E+01
    0.10631554910381395551E+01
    0.51882827217906513084E+00
    0.51700855246617605232E+00
    0.63762525773899170201E+00
    0.62587670973096676263E+00
    0.97750268601905154764E+00
    0.12293460277243775103E+01
    0.13941670611160663640E+01
    0.14661914657148276131E+01
    0.14743398526342526011E+01
    0.14361475484561911919E+01
    0.13138406389556851472E+01
    0.11913505917357953834E+01
    0.12527222352362556990E+01
    0.12251473929190606071E+01
    0.11231925123801931310E+01
    0.94248565775092596475E+00
    0.73564835306203213428E+00
    0.56727499189062258189E+00
    0.50485613005795726416E+00
    0.52020374108343803154E+00
    0.53041680731375728808E+00
    0.52967588042061264364E+00
    0.51052053456261659026E+00
    0.50571402385173258587E+00
    0.53970575753790916984E+00
    0.73095313592514599144E+00
    0.77606895267741582423E+00
    0.75424011642648047804E+00
    0.69010123737766360108E+00
    0.59407914254134341903E+00
    0.52280280817748359112E+00
    0.52213690835598902673E+00
