# vtk DataFile Version 3.0
LAPLACIEN  2D
ASCII
DATASET UNSTRUCTURED_GRID
 POINTS         391  float
  0.50371505999999999       0.50367786999999997        0.0000000000000000     
  0.29013556000000001       0.29014535000000002        0.0000000000000000     
  0.70165584999999997       0.71206597999999999        0.0000000000000000     
  0.70304188999999995       0.30176619999999998        0.0000000000000000     
  0.30920671999999999       0.71149227999999998        0.0000000000000000     
  0.79044983999999996       0.49884783999999999        0.0000000000000000     
  0.49102621000000002       0.20968644000000000        0.0000000000000000     
  0.49912957000000002       0.77208717000000004        0.0000000000000000     
  0.21724072999999999       0.48989389000000000        0.0000000000000000     
  0.83255933999999998       0.83046598000000005        0.0000000000000000     
  0.16646774000000000       0.17015694000000001        0.0000000000000000     
  0.83054514999999995       0.16736480000000001        0.0000000000000000     
  0.16953130999999999       0.83265739000000005        0.0000000000000000     
  0.42166445000000002       0.36345201999999999        0.0000000000000000     
  0.64462200999999997       0.56347807999999999        0.0000000000000000     
  0.35324633999999999       0.56311191000000005        0.0000000000000000     
  0.65456411000000003       0.84856860999999995        0.0000000000000000     
  0.35141477999999998       0.15563974000000000        0.0000000000000000     
  0.15290967000000000       0.35206625000000003        0.0000000000000000     
  0.82942241000000005       0.34936866000000000        0.0000000000000000     
  0.84390527000000004       0.64441694999999999        0.0000000000000000     
  0.63699174999999997       0.14284276000000001        0.0000000000000000     
  0.15620682999999999       0.64648446999999998        0.0000000000000000     
  0.36426062999999997       0.85756310999999996        0.0000000000000000     
  0.63489340999999999       0.40519052000000000        0.0000000000000000     
  0.52518872999999999       0.65957078000000002        0.0000000000000000     
  0.32158959999999998       0.42298103999999997        0.0000000000000000     
  0.58861710000000000       0.31711036999999997        0.0000000000000000     
  0.42078418000000001       0.69497151999999995        0.0000000000000000     
  0.48608786999999998       0.89334152000000000        0.0000000000000000     
   9.7084320000000002E-002  0.50000000000000000        0.0000000000000000     
  0.90291568000000000       0.50000000000000000        0.0000000000000000     
  0.51392453000000005       0.10668648999999999        0.0000000000000000     
  0.59792566999999996       0.73122754000000001        0.0000000000000000     
  0.74510058999999995       0.41124730999999998        0.0000000000000000     
  0.73212551999999997       0.90191560000000004        0.0000000000000000     
   9.7784830000000003E-002  0.26957329000000002        0.0000000000000000     
  0.26711221000000002        9.8671499999999995E-002   0.0000000000000000     
  0.90191560000000004       0.26787448000000003        0.0000000000000000     
  0.90118569000000004       0.73039821000000005        0.0000000000000000     
  0.73122947000000005        9.8017859999999998E-002   0.0000000000000000     
   9.8084400000000002E-002  0.73212551999999997        0.0000000000000000     
  0.26957329000000002       0.90221516999999996        0.0000000000000000     
  0.39283522999999998       0.25360379000000000        0.0000000000000000     
  0.74480864000000002       0.60495284999999999        0.0000000000000000     
  0.25505132000000003       0.60593640999999998        0.0000000000000000     
  0.52159297999999998       0.40671636000000000        0.0000000000000000     
  0.40768852000000000       0.47699891000000000        0.0000000000000000     
   9.1467049999999994E-002   9.1876959999999994E-002   0.0000000000000000     
  0.90842484999999995       0.90819225000000003        0.0000000000000000     
  0.90820104999999995        9.1566729999999999E-002   0.0000000000000000     
   9.1807449999999999E-002  0.90843574000000005        0.0000000000000000     
  0.27098960000000000       0.20527094000000001        0.0000000000000000     
  0.73457293999999995       0.79835387000000002        0.0000000000000000     
  0.79817773000000003       0.25713470999999999        0.0000000000000000     
  0.20747797000000001       0.72863946000000002        0.0000000000000000     
  0.20175195000000001       0.27583914999999998        0.0000000000000000     
  0.79603889000000005       0.72159035000000005        0.0000000000000000     
  0.71761666000000002       0.19748431999999999        0.0000000000000000     
  0.28462607000000001       0.80251899999999998        0.0000000000000000     
  0.69134598999999997       0.49261972999999998        0.0000000000000000     
  0.44720578999999999       0.58582935999999997        0.0000000000000000     
  0.24242269999999999       0.37228174000000003        0.0000000000000000     
  0.38265623999999998       0.93072131999999996        0.0000000000000000     
  0.60971754000000000       0.91988369000000003        0.0000000000000000     
   7.9163609999999995E-002  0.60979116000000000        0.0000000000000000     
  0.92010649000000000       0.61081183999999999        0.0000000000000000     
  0.61954008999999999        7.1530830000000004E-002   0.0000000000000000     
  0.91882012999999996       0.38917363999999999        0.0000000000000000     
  0.39086346000000000        8.0652249999999995E-002   0.0000000000000000     
   7.9183480000000001E-002  0.38966213000000000        0.0000000000000000     
  0.59114111999999996       0.49294315000000000        0.0000000000000000     
  0.63337980999999999       0.64485914000000000        0.0000000000000000     
  0.50012352000000004       0.29676539000000002        0.0000000000000000     
  0.82552601000000003       0.92753492000000004        0.0000000000000000     
  0.92774772999999999       0.82498556999999995        0.0000000000000000     
   7.1970870000000006E-002  0.17510291000000000        0.0000000000000000     
  0.17422821999999999        7.2635640000000001E-002   0.0000000000000000     
  0.82510813000000005        7.2134840000000006E-002   0.0000000000000000     
  0.92754665000000003       0.17446275999999999        0.0000000000000000     
  0.17501022999999999       0.92789951999999998        0.0000000000000000     
   7.2464680000000004E-002  0.82554053000000005        0.0000000000000000     
  0.30731587999999999       0.50885354999999999        0.0000000000000000     
  0.59033407999999998       0.22171178999999999        0.0000000000000000     
  0.40109191999999999       0.78725542000000004        0.0000000000000000     
  0.35420917000000002       0.63754104000000000        0.0000000000000000     
  0.15983976999999999       0.56665573000000002        0.0000000000000000     
  0.84108459999999996       0.56757886999999996        0.0000000000000000     
  0.83902096000000004       0.43344338999999998        0.0000000000000000     
  0.43230028999999998       0.16004268999999999        0.0000000000000000     
  0.57536027999999995       0.83041363999999995        0.0000000000000000     
  0.15771898000000001       0.42747892999999998        0.0000000000000000     
  0.34021692999999997       0.34221559000000001        0.0000000000000000     
  0.56002271999999997       0.57501117999999996        0.0000000000000000     
  0.65344329000000001       0.78147597999999996        0.0000000000000000     
   0.0000000000000000        0.0000000000000000        0.0000000000000000     
   1.0000000000000000        0.0000000000000000        0.0000000000000000     
   1.0000000000000000        1.0000000000000000        0.0000000000000000     
   0.0000000000000000        1.0000000000000000        0.0000000000000000     
  0.11111111000000000        0.0000000000000000        0.0000000000000000     
  0.22222222000000000        0.0000000000000000        0.0000000000000000     
  0.33333332999999998        0.0000000000000000        0.0000000000000000     
  0.44444444000000000        0.0000000000000000        0.0000000000000000     
  0.55555555999999995        0.0000000000000000        0.0000000000000000     
  0.66666667000000002        0.0000000000000000        0.0000000000000000     
  0.77777777999999997        0.0000000000000000        0.0000000000000000     
  0.88888889000000004        0.0000000000000000        0.0000000000000000     
   1.0000000000000000       0.11111111000000000        0.0000000000000000     
   1.0000000000000000       0.22222222000000000        0.0000000000000000     
   1.0000000000000000       0.33333332999999998        0.0000000000000000     
   1.0000000000000000       0.44444444000000000        0.0000000000000000     
   1.0000000000000000       0.55555555999999995        0.0000000000000000     
   1.0000000000000000       0.66666667000000002        0.0000000000000000     
   1.0000000000000000       0.77777777999999997        0.0000000000000000     
   1.0000000000000000       0.88888889000000004        0.0000000000000000     
  0.88888889000000004        1.0000000000000000        0.0000000000000000     
  0.77777777999999997        1.0000000000000000        0.0000000000000000     
  0.66666667000000002        1.0000000000000000        0.0000000000000000     
  0.55555555999999995        1.0000000000000000        0.0000000000000000     
  0.44444444000000000        1.0000000000000000        0.0000000000000000     
  0.33333332999999998        1.0000000000000000        0.0000000000000000     
  0.22222222000000000        1.0000000000000000        0.0000000000000000     
  0.11111111000000000        1.0000000000000000        0.0000000000000000     
   0.0000000000000000       0.11111111000000000        0.0000000000000000     
   0.0000000000000000       0.22222222000000000        0.0000000000000000     
[...]
 CELL_DATA         354
 SCALARS C float
 LOOKUP_TABLE default
    0.85874998775204280932E+00
    0.11241037314409010328E+01
    0.65722235185525446077E+00
    0.70162783196427325194E+00
    0.95582732626262423281E+00
    0.10400007928770118593E+01
    0.11409420625545676486E+01
    0.11024819782165216075E+01
    0.11782823331210856566E+01
    0.11799098486838774935E+01
    0.11612137470005052808E+01
    0.11784565095654053746E+01
    0.11580881556396942500E+01
    0.11581044846944272830E+01
    0.11645682913472747977E+01
    0.11587489883013701863E+01
    0.11640565857584252996E+01
    0.11785167181660358704E+01
    0.11797718338098990287E+01
    0.11751806440850451896E+01
    0.11634123568809078275E+01
    0.11651857103380092173E+01
    0.11833861576346240696E+01
    0.11744889979420412018E+01
    0.11837956247464900272E+01
    0.11804712435813753402E+01
    0.11811693696202094639E+01
    0.11828218439253279648E+01
    0.11479740958575341825E+01
    0.11024465988159799501E+01
    0.95266953304236179356E+00
    0.10418125898440897537E+01
    0.86236690489998246711E+00
    0.76938569006268986428E+00
    0.66745274276723809415E+00
    0.70820098685031640517E+00
    0.65670515369371962322E+00
    0.66508141485357463729E+00
    0.70753675321610942639E+00
    0.67743566552151490701E+00
    0.72044907046193973343E+00
    0.72351614587829682357E+00
    0.73971829662281496365E+00
    0.72847582965362445151E+00
    0.73002155280221836531E+00
    0.69356530835377849797E+00
    0.66692955388945429629E+00
    0.67765592329296386875E+00
    0.65923134525341620105E+00
    0.64627719978063247197E+00
    0.66702190110088066533E+00
    0.65623577706869840043E+00
    0.89367960882389574362E+00
    0.91358094155779812073E+00
    0.98043163953803369459E+00
    0.94194240581875965379E+00
    0.98566910501955162793E+00
    0.96213533691405150883E+00
    0.91991637141834792235E+00
    0.94177794394400793365E+00
    0.87840184949769484213E+00
    0.81267755869943369973E+00
    0.71406931052120214964E+00
    0.76331015938177460001E+00
    0.68104223031753696738E+00
    0.64992322952619341336E+00
    0.66032890469887728369E+00
    0.65193891902244782699E+00
    0.11454092039280880932E+01
    0.11693743821903230806E+01
    0.11770058618779106752E+01
    0.11585617143391242490E+01
    0.11731561891351662830E+01
    0.11666231753467375398E+01
    0.11915697289746560728E+01
    0.11952747699935817316E+01
    0.11986871496548778815E+01
    0.11802974891539597113E+01
    0.11632309811745222827E+01
    0.11869627861552616288E+01
    0.11052286676482503402E+01
    0.11339791128123482000E+01
    0.11921540512765989028E+01
    0.11248549164280940982E+01
    0.11541886367696965188E+01
    0.11215337296256964184E+01
    0.10436811362841875717E+01
    0.11468111690274422898E+01
    0.11476661096027163111E+01
    0.11386026383187644040E+01
    0.10924408172745083689E+01
    0.11331247279744236511E+01
    0.11036711699775680895E+01
    0.99449110119437256206E+00
    0.97295824701467747975E+00
    0.10465984500203062701E+01
    0.11446744713632659440E+01
    0.11991589875017711897E+01
    0.11689905046234221331E+01
    0.11928367791751328664E+01
    0.11787595383694082773E+01
    0.11976172774604896265E+01
    0.11952630914826101183E+01
    0.11375041314325091690E+01
    0.11359611833190936814E+01
    0.11020512384756375734E+01
    0.11013779586008622946E+01
    0.11354258464784727778E+01
    0.11570708911679674635E+01
    0.11322279122572571630E+01
    0.97878108044478762118E+00
    0.11284270836766110424E+01
    0.10506349906506260439E+01
    0.10381042127886868087E+01
    0.11911136560357831193E+01
    0.11213073487181186572E+01
    0.11711898664875526332E+01
    0.11932686199290565288E+01
    0.12026173575662344462E+01
    0.11298395689284179699E+01
    0.11725371220439333442E+01
    0.82608219494688561735E+00
    0.92080563829067174630E+00
    0.75806428818307181050E+00
    0.93779955163314276945E+00
    0.99344647888248649448E+00
    0.76670957766462533023E+00
    0.81279112804822706284E+00
    0.11316079179988891568E+01
    0.11807197981553698707E+01
    0.10922787460186926811E+01
    0.11968557353386382047E+01
    0.11894557382316497396E+01
    0.10964467063504010902E+01
    0.11359704486809274471E+01
    0.11955305952337220710E+01
    0.11758477411958925263E+01
    0.11902884776171505088E+01
    0.11784768200883799505E+01
    0.11623971674632616047E+01
    0.11875361883862916024E+01
    0.11941565355472336663E+01
    0.72668814872275999672E+00
    0.70489464247995958779E+00
    0.66242669748056626222E+00
    0.79857510865662262312E+00
    0.78346003956967691373E+00
    0.66724232479243061888E+00
    0.67354661089615153191E+00
    0.11636125650293756006E+01
    0.11462495395827334566E+01
    0.11368501421478394153E+01
    0.11580006456471481080E+01
    0.11178625269413238197E+01
    0.11558722334040814061E+01
    0.11951042591723910480E+01
    0.11789584618397250804E+01
    0.11649456664441695253E+01
    0.11961523955666089059E+01
    0.11841137635396470351E+01
    0.11851692011271701688E+01
    0.11796070768545305896E+01
    0.11898371620205006050E+01
    0.11981744314191189460E+01
    0.11977029997664336847E+01
    0.86705420350477557800E+00
    0.96738024232027353122E+00
    0.86599345624766932428E+00
    0.95745081345435778530E+00
    0.10129722588396847804E+01
    0.11890846794345559800E+01
    0.11642306185294355458E+01
    0.11889641993600763570E+01
    0.11880384174370144379E+01
    0.11653858170524531435E+01
    0.11385630299781086539E+01
    0.11850090117902480902E+01
    0.11892646913652484830E+01
    0.11215189266838498927E+01
    0.11584779171859271862E+01
    0.11691965434821527392E+01
    0.11956859305828961837E+01
    0.11777704394572527935E+01
    0.11968002712866558923E+01
    0.11909438539194987516E+01
    0.10978337316188939710E+01
    0.11851854556781034056E+01
    0.11305435627844813151E+01
    0.11508278140872492123E+01
    0.11824488212097548079E+01
    0.11412745251082840880E+01
    0.11500616701283714605E+01
    0.11380941168487024306E+01
    0.11447490622425000595E+01
    0.11090327744959775913E+01
    0.84889544669406669097E+00
    0.10533241495501248775E+01
    0.93069176282102228370E+00
    0.90172521719844211940E+00
    0.10089560160981059234E+01
    0.83649368273817215069E+00
    0.76784223578572285973E+00
    0.85012965388997208116E+00
    0.77330156604997191128E+00
    0.91332076442068987898E+00
    0.10556780326522603453E+01
    0.11447982025661787020E+01
    0.11202540371292635246E+01
    0.11467717784309277018E+01
    0.11411232996038014331E+01
    0.11838867527007279623E+01
    0.11833364081920141331E+01
    0.11974889404291295669E+01
    0.11991999090605487410E+01
    0.11913496427812289014E+01
    0.11795282373052584646E+01
    0.11992255776241538268E+01
    0.11959904508978143056E+01
    0.11819066122746384462E+01
    0.10480163812452210070E+01
    0.10141071975115061310E+01
    0.10097531728152173702E+01
    0.11907371444417735873E+01
    0.11064854947010820396E+01
    0.11816407113048972288E+01
    0.76616869930060349514E+00
    0.80976362777837151974E+00
    0.93324715788063850042E+00
    0.91609132822406025287E+00
    0.92965717694300753493E+00
    0.10257048405619311193E+01
    0.10368124496473511975E+01
    0.11040501019264601368E+01
    0.11768304528229984740E+01
    0.12112519400847383544E+01
    0.12064129754996930632E+01
    0.12032869273268032018E+01
    0.11514982274342790980E+01
    0.11612258632098046984E+01
    0.11175497550148101311E+01
    0.11514857626254029199E+01
    0.11920163353794246408E+01
    0.10970649731021930862E+01
    0.11255369988601906517E+01
    0.11634429598812003892E+01
    0.11734170937548813463E+01
    0.89785760734453168297E+00
    0.78838116274514047355E+00
    0.74153451978330009453E+00
    0.11600111471282636977E+01
    0.10668856751114097481E+01
    0.10481699258158130306E+01
    0.12043763594962708652E+01
    0.11890499773789131588E+01
    0.11511162035279012272E+01
    0.11854494227035734522E+01
    0.12010180018554243997E+01
    0.11964407642882997074E+01
    0.10440649367333045827E+01
    0.10681459376253956695E+01
    0.85979991555615198351E+00
    0.11562050642139014567E+01
    0.11569841676946328590E+01
    0.11726823059622841772E+01
    0.81853178396465775535E+00
    0.79824362904059187329E+00
    0.68580656258087480115E+00
    0.77581845336439358984E+00
    0.71047604899717331506E+00
    0.66501693816609197540E+00
    0.11684162708087924010E+01
    0.11191338048436505481E+01
    0.11518329339815911450E+01
    0.11595822116114393729E+01
    0.11603712243983987928E+01
    0.11825667870772111900E+01
    0.12046467361798316453E+01
    0.11986149304056457066E+01
    0.10376941389763940649E+01
    0.11889998008450486378E+01
    0.11730155004366846772E+01
    0.11032900252618544901E+01
    0.11467005682466702154E+01
    0.11408849405005907496E+01
    0.10955034739807103517E+01
    0.11801250226977642033E+01
    0.11824599038861089983E+01
    0.10038886479878645908E+01
    0.10616986912087988948E+01
    0.69482275086448352930E+00
    0.72604051493835419784E+00
    0.11943193625910100142E+01
    0.11966943674854699786E+01
    0.64579319015649971902E+00
    0.64760309959855766326E+00
    0.12075678924298260952E+01
    0.10556120343877988255E+01
    0.10547150268816589680E+01
    0.11557056302458157404E+01
    0.88398313852998455786E+00
    0.12009070559532375455E+01
    0.11170623581081404740E+01
    0.94598908438011808375E+00
    0.11604514746078218312E+01
    0.11949216993776605733E+01
    0.11893570463811511395E+01
    0.11819248674968412249E+01
    0.11882054964113373252E+01
    0.88744530335192362003E+00
    0.96642232781965253796E+00
    0.11782178126158069364E+01
    0.12080281986164149721E+01
    0.11652750488928069750E+01
    0.11094094993824294981E+01
    0.11632757259281383266E+01
    0.11952438326733481055E+01
    0.10629099957281780142E+01
    0.10478563749689946416E+01
    0.84166260895544242615E+00
    0.78652365646138833188E+00
    0.11246350194242613618E+01
    0.10932281445827034538E+01
    0.65462647181272637376E+00
    0.64972783726709959495E+00
    0.72714870947834020498E+00
    0.71874161346698350883E+00
    0.10431434607991423302E+01
    0.11843592259982165249E+01
    0.12559837599163947708E+01
    0.12684704930749830520E+01
    0.12666862928112390119E+01
    0.12620827301462840264E+01
    0.12281230788735222337E+01
    0.11736554056619248332E+01
    0.12062991322776666081E+01
    0.11922334705083355022E+01
    0.11366258097647796710E+01
    0.10204783345602748135E+01
    0.85354157935182417560E+00
    0.70868693915469638256E+00
    0.64835489765344833657E+00
    0.66647471976549521600E+00
    0.67699461493166945836E+00
    0.67586947482229631223E+00
    0.65649328431340403522E+00
    0.64594481127726899317E+00
    0.66228308678989478153E+00
    0.85073698134151087835E+00
    0.88844627060282110875E+00
    0.87052364001002624505E+00
    0.81639429759503134854E+00
    0.73396573285608102122E+00
    0.66753398617992121267E+00
    0.65364374927008528360E+00
