# vtk DataFile Version 3.0
LAPLACIEN  2D
ASCII
DATASET UNSTRUCTURED_GRID
 POINTS         391  float
  0.50371505999999999       0.50367786999999997        0.0000000000000000     
  0.29013556000000001       0.29014535000000002        0.0000000000000000     
  0.70165584999999997       0.71206597999999999        0.0000000000000000     
  0.70304188999999995       0.30176619999999998        0.0000000000000000     
  0.30920671999999999       0.71149227999999998        0.0000000000000000     
  0.79044983999999996       0.49884783999999999        0.0000000000000000     
  0.49102621000000002       0.20968644000000000        0.0000000000000000     
  0.49912957000000002       0.77208717000000004        0.0000000000000000     
  0.21724072999999999       0.48989389000000000        0.0000000000000000     
  0.83255933999999998       0.83046598000000005        0.0000000000000000     
  0.16646774000000000       0.17015694000000001        0.0000000000000000     
  0.83054514999999995       0.16736480000000001        0.0000000000000000     
  0.16953130999999999       0.83265739000000005        0.0000000000000000     
  0.42166445000000002       0.36345201999999999        0.0000000000000000     
  0.64462200999999997       0.56347807999999999        0.0000000000000000     
  0.35324633999999999       0.56311191000000005        0.0000000000000000     
  0.65456411000000003       0.84856860999999995        0.0000000000000000     
  0.35141477999999998       0.15563974000000000        0.0000000000000000     
  0.15290967000000000       0.35206625000000003        0.0000000000000000     
  0.82942241000000005       0.34936866000000000        0.0000000000000000     
  0.84390527000000004       0.64441694999999999        0.0000000000000000     
  0.63699174999999997       0.14284276000000001        0.0000000000000000     
  0.15620682999999999       0.64648446999999998        0.0000000000000000     
  0.36426062999999997       0.85756310999999996        0.0000000000000000     
  0.63489340999999999       0.40519052000000000        0.0000000000000000     
  0.52518872999999999       0.65957078000000002        0.0000000000000000     
  0.32158959999999998       0.42298103999999997        0.0000000000000000     
  0.58861710000000000       0.31711036999999997        0.0000000000000000     
  0.42078418000000001       0.69497151999999995        0.0000000000000000     
  0.48608786999999998       0.89334152000000000        0.0000000000000000     
   9.7084320000000002E-002  0.50000000000000000        0.0000000000000000     
  0.90291568000000000       0.50000000000000000        0.0000000000000000     
  0.51392453000000005       0.10668648999999999        0.0000000000000000     
  0.59792566999999996       0.73122754000000001        0.0000000000000000     
  0.74510058999999995       0.41124730999999998        0.0000000000000000     
  0.73212551999999997       0.90191560000000004        0.0000000000000000     
   9.7784830000000003E-002  0.26957329000000002        0.0000000000000000     
  0.26711221000000002        9.8671499999999995E-002   0.0000000000000000     
  0.90191560000000004       0.26787448000000003        0.0000000000000000     
  0.90118569000000004       0.73039821000000005        0.0000000000000000     
  0.73122947000000005        9.8017859999999998E-002   0.0000000000000000     
   9.8084400000000002E-002  0.73212551999999997        0.0000000000000000     
  0.26957329000000002       0.90221516999999996        0.0000000000000000     
  0.39283522999999998       0.25360379000000000        0.0000000000000000     
  0.74480864000000002       0.60495284999999999        0.0000000000000000     
  0.25505132000000003       0.60593640999999998        0.0000000000000000     
  0.52159297999999998       0.40671636000000000        0.0000000000000000     
  0.40768852000000000       0.47699891000000000        0.0000000000000000     
   9.1467049999999994E-002   9.1876959999999994E-002   0.0000000000000000     
  0.90842484999999995       0.90819225000000003        0.0000000000000000     
  0.90820104999999995        9.1566729999999999E-002   0.0000000000000000     
   9.1807449999999999E-002  0.90843574000000005        0.0000000000000000     
  0.27098960000000000       0.20527094000000001        0.0000000000000000     
  0.73457293999999995       0.79835387000000002        0.0000000000000000     
  0.79817773000000003       0.25713470999999999        0.0000000000000000     
  0.20747797000000001       0.72863946000000002        0.0000000000000000     
  0.20175195000000001       0.27583914999999998        0.0000000000000000     
  0.79603889000000005       0.72159035000000005        0.0000000000000000     
  0.71761666000000002       0.19748431999999999        0.0000000000000000     
  0.28462607000000001       0.80251899999999998        0.0000000000000000     
  0.69134598999999997       0.49261972999999998        0.0000000000000000     
  0.44720578999999999       0.58582935999999997        0.0000000000000000     
  0.24242269999999999       0.37228174000000003        0.0000000000000000     
  0.38265623999999998       0.93072131999999996        0.0000000000000000     
  0.60971754000000000       0.91988369000000003        0.0000000000000000     
   7.9163609999999995E-002  0.60979116000000000        0.0000000000000000     
  0.92010649000000000       0.61081183999999999        0.0000000000000000     
  0.61954008999999999        7.1530830000000004E-002   0.0000000000000000     
  0.91882012999999996       0.38917363999999999        0.0000000000000000     
  0.39086346000000000        8.0652249999999995E-002   0.0000000000000000     
   7.9183480000000001E-002  0.38966213000000000        0.0000000000000000     
  0.59114111999999996       0.49294315000000000        0.0000000000000000     
  0.63337980999999999       0.64485914000000000        0.0000000000000000     
  0.50012352000000004       0.29676539000000002        0.0000000000000000     
  0.82552601000000003       0.92753492000000004        0.0000000000000000     
  0.92774772999999999       0.82498556999999995        0.0000000000000000     
   7.1970870000000006E-002  0.17510291000000000        0.0000000000000000     
  0.17422821999999999        7.2635640000000001E-002   0.0000000000000000     
  0.82510813000000005        7.2134840000000006E-002   0.0000000000000000     
  0.92754665000000003       0.17446275999999999        0.0000000000000000     
  0.17501022999999999       0.92789951999999998        0.0000000000000000     
   7.2464680000000004E-002  0.82554053000000005        0.0000000000000000     
  0.30731587999999999       0.50885354999999999        0.0000000000000000     
  0.59033407999999998       0.22171178999999999        0.0000000000000000     
  0.40109191999999999       0.78725542000000004        0.0000000000000000     
  0.35420917000000002       0.63754104000000000        0.0000000000000000     
  0.15983976999999999       0.56665573000000002        0.0000000000000000     
  0.84108459999999996       0.56757886999999996        0.0000000000000000     
  0.83902096000000004       0.43344338999999998        0.0000000000000000     
  0.43230028999999998       0.16004268999999999        0.0000000000000000     
  0.57536027999999995       0.83041363999999995        0.0000000000000000     
  0.15771898000000001       0.42747892999999998        0.0000000000000000     
  0.34021692999999997       0.34221559000000001        0.0000000000000000     
  0.56002271999999997       0.57501117999999996        0.0000000000000000     
  0.65344329000000001       0.78147597999999996        0.0000000000000000     
   0.0000000000000000        0.0000000000000000        0.0000000000000000     
   1.0000000000000000        0.0000000000000000        0.0000000000000000     
   1.0000000000000000        1.0000000000000000        0.0000000000000000     
   0.0000000000000000        1.0000000000000000        0.0000000000000000     
  0.11111111000000000        0.0000000000000000        0.0000000000000000     
  0.22222222000000000        0.0000000000000000        0.0000000000000000     
  0.33333332999999998        0.0000000000000000        0.0000000000000000     
  0.44444444000000000        0.0000000000000000        0.0000000000000000     
  0.55555555999999995        0.0000000000000000        0.0000000000000000     
  0.66666667000000002        0.0000000000000000        0.0000000000000000     
  0.77777777999999997        0.0000000000000000        0.0000000000000000     
  0.88888889000000004        0.0000000000000000        0.0000000000000000     
   1.0000000000000000       0.11111111000000000        0.0000000000000000     
   1.0000000000000000       0.22222222000000000        0.0000000000000000     
   1.0000000000000000       0.33333332999999998        0.0000000000000000     
   1.0000000000000000       0.44444444000000000        0.0000000000000000     
   1.0000000000000000       0.55555555999999995        0.0000000000000000     
   1.0000000000000000       0.66666667000000002        0.0000000000000000     
   1.0000000000000000       0.77777777999999997        0.0000000000000000     
   1.0000000000000000       0.88888889000000004        0.0000000000000000     
  0.88888889000000004        1.0000000000000000        0.0000000000000000     
  0.77777777999999997        1.0000000000000000        0.0000000000000000     
  0.66666667000000002        1.0000000000000000        0.0000000000000000     
  0.55555555999999995        1.0000000000000000        0.0000000000000000     
  0.44444444000000000        1.0000000000000000        0.0000000000000000     
  0.33333332999999998        1.0000000000000000        0.0000000000000000     
  0.22222222000000000        1.0000000000000000        0.0000000000000000     
  0.11111111000000000        1.0000000000000000        0.0000000000000000     
   0.0000000000000000       0.11111111000000000        0.0000000000000000     
   0.0000000000000000       0.22222222000000000        0.0000000000000000     
[...]
 CELL_DATA         354
 SCALARS C float
 LOOKUP_TABLE default
    0.74258815178822445979E+00
    0.11472176988349547244E+01
    0.51938969821601066457E+00
    0.59887003552280360097E+00
    0.85995379692936713134E+00
    0.97493036248790010401E+00
    0.12363226434923280106E+01
    0.11079658583292277818E+01
    0.13430372347909720343E+01
    0.14129513792228927116E+01
    0.14770937812257800559E+01
    0.14632956356496027439E+01
    0.14867724646901003815E+01
    0.14906506064524864819E+01
    0.14830657656026584590E+01
    0.14874849980659852200E+01
    0.14545747512877458263E+01
    0.14091359523551245658E+01
    0.12603978769025507845E+01
    0.13339703357725818389E+01
    0.12175968129571834719E+01
    0.12549092242429167321E+01
    0.13382745452207467363E+01
    0.12993116107621913713E+01
    0.13476150872820076287E+01
    0.13275019281567255192E+01
    0.12580672920913134050E+01
    0.12962014505585723878E+01
    0.11854519498801492361E+01
    0.10803810430349738425E+01
    0.85787102167225048888E+00
    0.97266376946897437072E+00
    0.74685290933792458645E+00
    0.63491861948049055364E+00
    0.52210302693095533844E+00
    0.56621255079497245788E+00
    0.51321567041597304648E+00
    0.52081733943779373597E+00
    0.56550830062229651141E+00
    0.53174663339983652133E+00
    0.58020793559440275722E+00
    0.58341237889513675174E+00
    0.60218818302149945687E+00
    0.58865775742662440617E+00
    0.59080044892166894144E+00
    0.54848243928086493071E+00
    0.52190943778657261642E+00
    0.53282250606530501269E+00
    0.51711050505879097017E+00
    0.50781746658954607376E+00
    0.54727791762600541681E+00
    0.52843384953871475052E+00
    0.78361537027580618897E+00
    0.80697474712475658620E+00
    0.88964560104629641923E+00
    0.84141445620519972337E+00
    0.89816145849632289533E+00
    0.86862485449719062380E+00
    0.81621948795177023950E+00
    0.84281833228832581106E+00
    0.76646881613935369248E+00
    0.68657669065704607370E+00
    0.57235666263078555094E+00
    0.62943267013538739540E+00
    0.53720263421401737158E+00
    0.50594367131400874715E+00
    0.53691156363986669575E+00
    0.51795215097062163867E+00
    0.14362327089934630031E+01
    0.14890304431603282875E+01
    0.14862812784135086552E+01
    0.14736058658400124077E+01
    0.14936247115420904219E+01
    0.14870525318015834770E+01
    0.14674174470767618050E+01
    0.14246165068413410015E+01
    0.14525314123292276669E+01
    0.14914472092772883549E+01
    0.12189037266635944778E+01
    0.13100675041734555215E+01
    0.10741526676257624473E+01
    0.11585571449419271861E+01
    0.13179282065864912354E+01
    0.11212597688970966647E+01
    0.14457250763848659147E+01
    0.13226970239881672420E+01
    0.11986907626332745647E+01
    0.14153450384088293035E+01
    0.14367409393982994992E+01
    0.13842527820286787410E+01
    0.12651510539965060698E+01
    0.11265148896491796737E+01
    0.10888618702956105455E+01
    0.91829457919337598160E+00
    0.88525604767469190381E+00
    0.98648830817042720831E+00
    0.11634172005279306283E+01
    0.14235684913044104327E+01
    0.14889257587196180754E+01
    0.14543122805255599417E+01
    0.14908445004970849457E+01
    0.14215070856227864926E+01
    0.14804424835242104841E+01
    0.14111850768442173454E+01
    0.14052199183513487402E+01
    0.12981116917661348342E+01
    0.12987398755101795533E+01
    0.14289256894110686780E+01
    0.12289918567686093365E+01
    0.11539107209372978513E+01
    0.89092212902258616225E+00
    0.11437088502651713284E+01
    0.99888628455758676772E+00
    0.98209231181645029185E+00
    0.13960811780657502723E+01
    0.11025991082172694746E+01
    0.12238926547479258566E+01
    0.13501636310017390841E+01
    0.13500242868639484861E+01
    0.11284267495438671247E+01
    0.12221984052354879502E+01
    0.70354199334281286582E+00
    0.81976537836296126116E+00
    0.62319601096399734885E+00
    0.84059418201600621945E+00
    0.91072350720576800143E+00
    0.63405273237696002653E+00
    0.68781548451706742142E+00
    0.11354423159042610347E+01
    0.12897724990123717870E+01
    0.10503267055228848736E+01
    0.13398045312166866339E+01
    0.12784193578740086217E+01
    0.10544668437843183195E+01
    0.11572021356005297577E+01
    0.14704140589439957942E+01
    0.14931883617901551276E+01
    0.14137718511346870631E+01
    0.14921715000170545640E+01
    0.14796078169871784702E+01
    0.14598731343318722686E+01
    0.14292285229647436751E+01
    0.58645955825512019466E+00
    0.56166550141093862791E+00
    0.51888462570357307690E+00
    0.67090527529052434996E+00
    0.65259961418497502983E+00
    0.52220012711668972738E+00
    0.52823921839501231101E+00
    0.14797553763310478114E+01
    0.14418828639919534229E+01
    0.13889543769516525806E+01
    0.14697296295791728582E+01
    0.13489351275026726373E+01
    0.14766712414378388996E+01
    0.14630750978820692421E+01
    0.14935178081714568510E+01
    0.14893813270895659429E+01
    0.14586974258254916670E+01
    0.14918858265562391363E+01
    0.13051030858266443602E+01
    0.14620104517644962883E+01
    0.14350464902552608759E+01
    0.14089689825591151795E+01
    0.13456941646343247854E+01
    0.75249688241574952396E+00
    0.87743516114190811539E+00
    0.75035999905493278028E+00
    0.86617815679079668278E+00
    0.93618555654110680031E+00
    0.14440737334767859146E+01
    0.14881677824691852408E+01
    0.14740495423574797584E+01
    0.14868595651530911450E+01
    0.14910574514206937913E+01
    0.11422012594380857031E+01
    0.12770982601072473628E+01
    0.13110947649485824584E+01
    0.11002204984488370698E+01
    0.12007454093666241057E+01
    0.14838917384954362078E+01
    0.14788294539495165925E+01
    0.14906925456423856247E+01
    0.14630054572942454705E+01
    0.14903122627761384855E+01
    0.10564164950241941021E+01
    0.12996908429636975235E+01
    0.11491394524462836824E+01
    0.11591602326079477603E+01
    0.12826548531656776220E+01
    0.14431821060196892148E+01
    0.14718288392030332012E+01
    0.14274790104760024523E+01
    0.14712556771564042624E+01
    0.13577863793428315287E+01
    0.73022095895206662330E+00
    0.99310606213551533283E+00
    0.83223622439588151867E+00
    0.79430373257499664597E+00
    0.93471705932321191845E+00
    0.71685892152145780365E+00
    0.63303583172929245304E+00
    0.73182543290271828695E+00
    0.63981189810471827961E+00
    0.81046582490180085756E+00
    0.12141779882423779924E+01
    0.14089843577328959867E+01
    0.13227865280308326312E+01
    0.14304474956138506503E+01
    0.14066549521244520182E+01
    0.13038443280179534689E+01
    0.12911271912307231702E+01
    0.14173706113228139447E+01
    0.13931531567745021327E+01
    0.14434105026825068130E+01
    0.14919776170330636411E+01
    0.14497814174446275182E+01
    0.14503612344027176917E+01
    0.14919589722522699216E+01
    0.12046977234895663855E+01
    0.11438657126377766993E+01
    0.11375534699283869067E+01
    0.13493577750849605756E+01
    0.10809378202215664810E+01
    0.12570909702697958821E+01
    0.63191516276959258658E+00
    0.68328485765911128880E+00
    0.83394261675018777069E+00
    0.81341452160171712205E+00
    0.82843217807351554605E+00
    0.95222796101673246039E+00
    0.97628786356819263759E+00
    0.10698458248371005563E+01
    0.12322223431211050126E+01
    0.13736429418101119282E+01
    0.13494381484693782625E+01
    0.14265681973565591534E+01
    0.14859247734989793344E+01
    0.14887023564993466795E+01
    0.13682796126535177184E+01
    0.14741881061115424956E+01
    0.13126847323036061610E+01
    0.10593651436543858324E+01
    0.11171007210422021494E+01
    0.14776026104271515749E+01
    0.14891859758607863817E+01
    0.79136688103904129221E+00
    0.65730229918384963650E+00
    0.60376922360075013785E+00
    0.12069236814267410018E+01
    0.10113465912240655609E+01
    0.98995210636615404987E+00
    0.14046605158198846031E+01
    0.14306541385014597267E+01
    0.12277090762149582837E+01
    0.14832648769076133277E+01
    0.14258416224292256302E+01
    0.14060997635483838408E+01
    0.98339901162940557278E+00
    0.10082568055527856288E+01
    0.74469201227465420256E+00
    0.14761040210689442276E+01
    0.14954137820700907913E+01
    0.14696507364091093706E+01
    0.69440747180866735366E+00
    0.66939178036053981202E+00
    0.54165180801413792544E+00
    0.64360243667718264327E+00
    0.56702146963513655464E+00
    0.52011667869849276258E+00
    0.14780666954880810060E+01
    0.13642612619370866334E+01
    0.14681635195231970137E+01
    0.14844504072515458670E+01
    0.12494118439813193255E+01
    0.14711033170474774323E+01
    0.14079526017445913588E+01
    0.13840329461582221438E+01
    0.97456006314542464875E+00
    0.13074492914859778825E+01
    0.12273263279578592311E+01
    0.10865620926490791032E+01
    0.14392096924484867326E+01
    0.14079288607809459233E+01
    0.12738341621360245171E+01
    0.14833889777336266569E+01
    0.14660182886775405819E+01
    0.92054526417546700401E+00
    0.10097595739332621001E+01
    0.55047154923974694896E+00
    0.58542785209290870707E+00
    0.13799924936135301579E+01
    0.13452558033565695794E+01
    0.50680980789683738319E+00
    0.50648468216799236163E+00
    0.13958819995640801004E+01
    0.10038054463432251051E+01
    0.99484199592176780769E+00
    0.14645797627839951538E+01
    0.77311681563277023788E+00
    0.13809343164108971447E+01
    0.13402781338590383786E+01
    0.85079062636538205222E+00
    0.14747168082279749068E+01
    0.13684889534068258587E+01
    0.14772117583781871897E+01
    0.12950523042257482409E+01
    0.14701107610904284861E+01
    0.77767003994058359062E+00
    0.87460330117876683431E+00
    0.12502920616730111014E+01
    0.14478549535868423526E+01
    0.14895819049614384966E+01
    0.10788885779456394154E+01
    0.14889381068405709296E+01
    0.14554717263318073250E+01
    0.12016961682697604452E+01
    0.98308802199195999272E+00
    0.72147021417983725478E+00
    0.65557917549526723011E+00
    0.11036505434991215058E+01
    0.10631674632117911194E+01
    0.51883031309922456042E+00
    0.51700946953458837285E+00
    0.63762008420565918776E+00
    0.62587371528807245191E+00
    0.97750911479828495043E+00
    0.12293543559691673117E+01
    0.13941715786130111088E+01
    0.14661928659763356908E+01
    0.14743412909168678304E+01
    0.14361507616156343747E+01
    0.13138457583194251832E+01
    0.11913618494614417465E+01
    0.12527341548990029718E+01
    0.12251596062798044695E+01
    0.11232052084870922659E+01
    0.94249855708125007681E+00
    0.73566088593311418364E+00
    0.56728070174239020318E+00
    0.50486029480417837778E+00
    0.52021210139071893952E+00
    0.53042624799267057423E+00
    0.52968567719539638716E+00
    0.51052703110206920645E+00
    0.50571748025539742244E+00
    0.53970439772447253990E+00
    0.73096717804838062804E+00
    0.77608549231345269614E+00
    0.75425614979682698014E+00
    0.69011572947334942629E+00
    0.59409020386460920093E+00
    0.52281054548343441901E+00
    0.52213785365644715952E+00
