# vtk DataFile Version 3.0
LAPLACIEN  2D
ASCII
DATASET UNSTRUCTURED_GRID
 POINTS         391  float
  0.50371505999999999       0.50367786999999997        0.0000000000000000     
  0.29013556000000001       0.29014535000000002        0.0000000000000000     
  0.70165584999999997       0.71206597999999999        0.0000000000000000     
  0.70304188999999995       0.30176619999999998        0.0000000000000000     
  0.30920671999999999       0.71149227999999998        0.0000000000000000     
  0.79044983999999996       0.49884783999999999        0.0000000000000000     
  0.49102621000000002       0.20968644000000000        0.0000000000000000     
  0.49912957000000002       0.77208717000000004        0.0000000000000000     
  0.21724072999999999       0.48989389000000000        0.0000000000000000     
  0.83255933999999998       0.83046598000000005        0.0000000000000000     
  0.16646774000000000       0.17015694000000001        0.0000000000000000     
  0.83054514999999995       0.16736480000000001        0.0000000000000000     
  0.16953130999999999       0.83265739000000005        0.0000000000000000     
  0.42166445000000002       0.36345201999999999        0.0000000000000000     
  0.64462200999999997       0.56347807999999999        0.0000000000000000     
  0.35324633999999999       0.56311191000000005        0.0000000000000000     
  0.65456411000000003       0.84856860999999995        0.0000000000000000     
  0.35141477999999998       0.15563974000000000        0.0000000000000000     
  0.15290967000000000       0.35206625000000003        0.0000000000000000     
  0.82942241000000005       0.34936866000000000        0.0000000000000000     
  0.84390527000000004       0.64441694999999999        0.0000000000000000     
  0.63699174999999997       0.14284276000000001        0.0000000000000000     
  0.15620682999999999       0.64648446999999998        0.0000000000000000     
  0.36426062999999997       0.85756310999999996        0.0000000000000000     
  0.63489340999999999       0.40519052000000000        0.0000000000000000     
  0.52518872999999999       0.65957078000000002        0.0000000000000000     
  0.32158959999999998       0.42298103999999997        0.0000000000000000     
  0.58861710000000000       0.31711036999999997        0.0000000000000000     
  0.42078418000000001       0.69497151999999995        0.0000000000000000     
  0.48608786999999998       0.89334152000000000        0.0000000000000000     
   9.7084320000000002E-002  0.50000000000000000        0.0000000000000000     
  0.90291568000000000       0.50000000000000000        0.0000000000000000     
  0.51392453000000005       0.10668648999999999        0.0000000000000000     
  0.59792566999999996       0.73122754000000001        0.0000000000000000     
  0.74510058999999995       0.41124730999999998        0.0000000000000000     
  0.73212551999999997       0.90191560000000004        0.0000000000000000     
   9.7784830000000003E-002  0.26957329000000002        0.0000000000000000     
  0.26711221000000002        9.8671499999999995E-002   0.0000000000000000     
  0.90191560000000004       0.26787448000000003        0.0000000000000000     
  0.90118569000000004       0.73039821000000005        0.0000000000000000     
  0.73122947000000005        9.8017859999999998E-002   0.0000000000000000     
   9.8084400000000002E-002  0.73212551999999997        0.0000000000000000     
  0.26957329000000002       0.90221516999999996        0.0000000000000000     
  0.39283522999999998       0.25360379000000000        0.0000000000000000     
  0.74480864000000002       0.60495284999999999        0.0000000000000000     
  0.25505132000000003       0.60593640999999998        0.0000000000000000     
  0.52159297999999998       0.40671636000000000        0.0000000000000000     
  0.40768852000000000       0.47699891000000000        0.0000000000000000     
   9.1467049999999994E-002   9.1876959999999994E-002   0.0000000000000000     
  0.90842484999999995       0.90819225000000003        0.0000000000000000     
  0.90820104999999995        9.1566729999999999E-002   0.0000000000000000     
   9.1807449999999999E-002  0.90843574000000005        0.0000000000000000     
  0.27098960000000000       0.20527094000000001        0.0000000000000000     
  0.73457293999999995       0.79835387000000002        0.0000000000000000     
  0.79817773000000003       0.25713470999999999        0.0000000000000000     
  0.20747797000000001       0.72863946000000002        0.0000000000000000     
  0.20175195000000001       0.27583914999999998        0.0000000000000000     
  0.79603889000000005       0.72159035000000005        0.0000000000000000     
  0.71761666000000002       0.19748431999999999        0.0000000000000000     
  0.28462607000000001       0.80251899999999998        0.0000000000000000     
  0.69134598999999997       0.49261972999999998        0.0000000000000000     
  0.44720578999999999       0.58582935999999997        0.0000000000000000     
  0.24242269999999999       0.37228174000000003        0.0000000000000000     
  0.38265623999999998       0.93072131999999996        0.0000000000000000     
  0.60971754000000000       0.91988369000000003        0.0000000000000000     
   7.9163609999999995E-002  0.60979116000000000        0.0000000000000000     
  0.92010649000000000       0.61081183999999999        0.0000000000000000     
  0.61954008999999999        7.1530830000000004E-002   0.0000000000000000     
  0.91882012999999996       0.38917363999999999        0.0000000000000000     
  0.39086346000000000        8.0652249999999995E-002   0.0000000000000000     
   7.9183480000000001E-002  0.38966213000000000        0.0000000000000000     
  0.59114111999999996       0.49294315000000000        0.0000000000000000     
  0.63337980999999999       0.64485914000000000        0.0000000000000000     
  0.50012352000000004       0.29676539000000002        0.0000000000000000     
  0.82552601000000003       0.92753492000000004        0.0000000000000000     
  0.92774772999999999       0.82498556999999995        0.0000000000000000     
   7.1970870000000006E-002  0.17510291000000000        0.0000000000000000     
  0.17422821999999999        7.2635640000000001E-002   0.0000000000000000     
  0.82510813000000005        7.2134840000000006E-002   0.0000000000000000     
  0.92754665000000003       0.17446275999999999        0.0000000000000000     
  0.17501022999999999       0.92789951999999998        0.0000000000000000     
   7.2464680000000004E-002  0.82554053000000005        0.0000000000000000     
  0.30731587999999999       0.50885354999999999        0.0000000000000000     
  0.59033407999999998       0.22171178999999999        0.0000000000000000     
  0.40109191999999999       0.78725542000000004        0.0000000000000000     
  0.35420917000000002       0.63754104000000000        0.0000000000000000     
  0.15983976999999999       0.56665573000000002        0.0000000000000000     
  0.84108459999999996       0.56757886999999996        0.0000000000000000     
  0.83902096000000004       0.43344338999999998        0.0000000000000000     
  0.43230028999999998       0.16004268999999999        0.0000000000000000     
  0.57536027999999995       0.83041363999999995        0.0000000000000000     
  0.15771898000000001       0.42747892999999998        0.0000000000000000     
  0.34021692999999997       0.34221559000000001        0.0000000000000000     
  0.56002271999999997       0.57501117999999996        0.0000000000000000     
  0.65344329000000001       0.78147597999999996        0.0000000000000000     
   0.0000000000000000        0.0000000000000000        0.0000000000000000     
   1.0000000000000000        0.0000000000000000        0.0000000000000000     
   1.0000000000000000        1.0000000000000000        0.0000000000000000     
   0.0000000000000000        1.0000000000000000        0.0000000000000000     
  0.11111111000000000        0.0000000000000000        0.0000000000000000     
  0.22222222000000000        0.0000000000000000        0.0000000000000000     
  0.33333332999999998        0.0000000000000000        0.0000000000000000     
  0.44444444000000000        0.0000000000000000        0.0000000000000000     
  0.55555555999999995        0.0000000000000000        0.0000000000000000     
  0.66666667000000002        0.0000000000000000        0.0000000000000000     
  0.77777777999999997        0.0000000000000000        0.0000000000000000     
  0.88888889000000004        0.0000000000000000        0.0000000000000000     
   1.0000000000000000       0.11111111000000000        0.0000000000000000     
   1.0000000000000000       0.22222222000000000        0.0000000000000000     
   1.0000000000000000       0.33333332999999998        0.0000000000000000     
   1.0000000000000000       0.44444444000000000        0.0000000000000000     
   1.0000000000000000       0.55555555999999995        0.0000000000000000     
   1.0000000000000000       0.66666667000000002        0.0000000000000000     
   1.0000000000000000       0.77777777999999997        0.0000000000000000     
   1.0000000000000000       0.88888889000000004        0.0000000000000000     
  0.88888889000000004        1.0000000000000000        0.0000000000000000     
  0.77777777999999997        1.0000000000000000        0.0000000000000000     
  0.66666667000000002        1.0000000000000000        0.0000000000000000     
  0.55555555999999995        1.0000000000000000        0.0000000000000000     
  0.44444444000000000        1.0000000000000000        0.0000000000000000     
  0.33333332999999998        1.0000000000000000        0.0000000000000000     
  0.22222222000000000        1.0000000000000000        0.0000000000000000     
  0.11111111000000000        1.0000000000000000        0.0000000000000000     
   0.0000000000000000       0.11111111000000000        0.0000000000000000     
   0.0000000000000000       0.22222222000000000        0.0000000000000000     
[...]
 CELL_DATA         354
 SCALARS C float
 LOOKUP_TABLE default
    0.86748368967490896431E+00
    0.11257144671343770614E+01
    0.66780442106317705608E+00
    0.70996445494894755424E+00
    0.96306174672409117221E+00
    0.10440808978083069292E+01
    0.11449949684294498109E+01
    0.11057834350604600626E+01
    0.11812592118062068547E+01
    0.11820398185811022973E+01
    0.11628053953771086970E+01
    0.11801547973437442884E+01
    0.11591055774670395717E+01
    0.11593634689455156739E+01
    0.11659418173698650190E+01
    0.11602336399095376507E+01
    0.11661477304016643064E+01
    0.11808025377206006201E+01
    0.11837426219345377199E+01
    0.11791642738048144778E+01
    0.11658776076341506034E+01
    0.11682618239550779382E+01
    0.11859487215787529735E+01
    0.11766126569778108113E+01
    0.11862623189969978554E+01
    0.11830573709590690434E+01
    0.11839814383753992644E+01
    0.11862892565630187569E+01
    0.11496095886132446928E+01
    0.11054043853600261649E+01
    0.95948569929214477803E+00
    0.10461664975129310040E+01
    0.87107034029297003563E+00
    0.77954119527155041336E+00
    0.67849866274445491676E+00
    0.71897335723837230148E+00
    0.66769753619946436984E+00
    0.67603667319178750716E+00
    0.71825895564423258843E+00
    0.68847318801300727564E+00
    0.73088467477236462866E+00
    0.73397604446679365342E+00
    0.74996157098678606356E+00
    0.73892504147518900393E+00
    0.74050202605674075862E+00
    0.70449837834119721780E+00
    0.67784119542455911755E+00
    0.68851960805538625632E+00
    0.67003323454419472238E+00
    0.65697657683759724812E+00
    0.67642891979149066817E+00
    0.66604831949506826394E+00
    0.90196639842994996705E+00
    0.92159498276483220458E+00
    0.98717673865525246146E+00
    0.94939278740100840892E+00
    0.99180386607120762932E+00
    0.96875470516439099455E+00
    0.92756912574941741134E+00
    0.94907517731944146533E+00
    0.88674109306674964159E+00
    0.82207061894286914683E+00
    0.72461791246259332766E+00
    0.77330495282543809665E+00
    0.69192500041363469432E+00
    0.66094185518388282041E+00
    0.66972382979865985320E+00
    0.66217579051541064494E+00
    0.11459570767730820062E+01
    0.11702098121470771996E+01
    0.11785953900066408195E+01
    0.11588416256709119789E+01
    0.11746374655439399959E+01
    0.11679783991412882038E+01
    0.11934660467575710641E+01
    0.11970570225179573143E+01
    0.12001421693633580468E+01
    0.11813805054139243644E+01
    0.11680237663059434006E+01
    0.11909741122722903306E+01
    0.11076191411870393022E+01
    0.11380462734002696479E+01
    0.11965348108577107400E+01
    0.11274038540868434044E+01
    0.11549943520395533625E+01
    0.11222095610190232495E+01
    0.10400147290285299828E+01
    0.11481381908480416953E+01
    0.11481636047881087492E+01
    0.11402698090513438967E+01
    0.10916567270217962804E+01
    0.11372217095883576654E+01
    0.11076681477460792458E+01
    0.99979636119802528516E+00
    0.97985056377352730550E+00
    0.10505505882190928624E+01
    0.11509847715720891159E+01
    0.12012071853992931647E+01
    0.11704602340092984392E+01
    0.11945067915896108168E+01
    0.11801658360687066196E+01
    0.11991773030346521978E+01
    0.11969066671277421854E+01
    0.11382358821458227194E+01
    0.11366543349651951900E+01
    0.11039577572953795936E+01
    0.11035832435380432681E+01
    0.11358058372002823866E+01
    0.11626083913053129049E+01
    0.11358962575748936530E+01
    0.98598766518495795097E+00
    0.11321727494838333961E+01
    0.10546950209916869934E+01
    0.10421258213560968819E+01
    0.11932781816227964189E+01
    0.11245774568107484992E+01
    0.11765040731044764666E+01
    0.11971227019485000120E+01
    0.12066805026616767016E+01
    0.11316821891091826124E+01
    0.11785921771549978665E+01
    0.83536108608329928682E+00
    0.92844696388171032986E+00
    0.76838485794657129802E+00
    0.94538774303207595562E+00
    0.99996997909247453684E+00
    0.77668158626878680550E+00
    0.82224748845399031616E+00
    0.11343650453617382112E+01
    0.11854012357976528858E+01
    0.10954635756679707015E+01
    0.12009270754209537824E+01
    0.11944393927693819357E+01
    0.10980603822215360132E+01
    0.11398287723412843242E+01
    0.11970006444068492790E+01
    0.11769742772541742504E+01
    0.11923964011077545777E+01
    0.11797790774331526897E+01
    0.11634660106011311953E+01
    0.11890665143407124216E+01
    0.11956997752244342692E+01
    0.73723608228857995250E+00
    0.71565099899403650241E+00
    0.67336961265966743806E+00
    0.80837988459718701506E+00
    0.79344298940803825726E+00
    0.67818647600926440511E+00
    0.68449460173396636797E+00
    0.11646561774911359244E+01
    0.11461730359029702608E+01
    0.11385736015845582259E+01
    0.11584999048232500485E+01
    0.11197077326192137470E+01
    0.11563555163399041881E+01
    0.11966397438067586378E+01
    0.11802290927720446856E+01
    0.11663318946225709194E+01
    0.11976476582939479254E+01
    0.11857836621294612911E+01
    0.11891043880383955766E+01
    0.11812196147247888689E+01
    0.11915494996054487586E+01
    0.11998377791174117402E+01
    0.12019079722600349847E+01
    0.87607665471366635845E+00
    0.97480704545841878605E+00
    0.87520846291729526012E+00
    0.96469081482324758881E+00
    0.10191875877635312442E+01
    0.11906405414027774192E+01
    0.11652948398408398134E+01
    0.11906434222581721016E+01
    0.11890937749232945997E+01
    0.11661703005324755011E+01
    0.11423952036186766357E+01
    0.11899676796789602218E+01
    0.11936059326305650252E+01
    0.11247617955930588884E+01
    0.11632840704006839339E+01
    0.11699514082466189180E+01
    0.11968546244991846716E+01
    0.11787386795179870536E+01
    0.11982431874466776822E+01
    0.11925991809768938801E+01
    0.11013092079518891353E+01
    0.11894892557977807535E+01
    0.11344576018103933457E+01
    0.11554602067404111665E+01
    0.11870401005302926301E+01
    0.11410751016205871178E+01
    0.11506601784982166681E+01
    0.11377900951350208292E+01
    0.11453700812074001369E+01
    0.11093513288423313412E+01
    0.85828027587756172689E+00
    0.10573912387901067689E+01
    0.93828141921561913907E+00
    0.91037257473109645112E+00
    0.10141420912367928864E+01
    0.84532432764213716325E+00
    0.77823187540181992805E+00
    0.85917941504940542607E+00
    0.78339278010088420068E+00
    0.92101326925594595441E+00
    0.10549192356132470749E+01
    0.11463136280064540884E+01
    0.11213413598515937775E+01
    0.11473560051992253150E+01
    0.11425221915475258783E+01
    0.11882554895775465642E+01
    0.11877880783916485719E+01
    0.11995439303418291566E+01
    0.12012863105843283318E+01
    0.11928119758950206375E+01
    0.11805726862067875693E+01
    0.12007196719750008462E+01
    0.11972922875701497158E+01
    0.11829370603711741872E+01
    0.10454390237363391236E+01
    0.10087548819249465559E+01
    0.10039193176344445302E+01
    0.11945178036859827042E+01
    0.11078272332587348892E+01
    0.11876586718230874862E+01
    0.77626814016641354499E+00
    0.81935722222728768482E+00
    0.94089065536086502473E+00
    0.92409007417994926126E+00
    0.93753939766536087408E+00
    0.10308196355739218664E+01
    0.10404780612897031045E+01
    0.11090126727091234038E+01
    0.11806332282449534254E+01
    0.12140622562930580841E+01
    0.12098513693254835388E+01
    0.12050304855104001511E+01
    0.11522012958351397494E+01
    0.11626555446580011388E+01
    0.11187375778916066604E+01
    0.11518124379464433904E+01
    0.11965043421065255647E+01
    0.10995913580642076024E+01
    0.11288593413517666875E+01
    0.11639473724182702874E+01
    0.11751100880720277697E+01
    0.90624757042863124390E+00
    0.79841260927273616232E+00
    0.75191088367618474919E+00
    0.11655724613786557775E+01
    0.10703796039492328163E+01
    0.10511297260190068936E+01
    0.12070438952639608310E+01
    0.11908417939766284821E+01
    0.11556166505295542013E+01
    0.11871851271861579846E+01
    0.12025925584363532650E+01
    0.11983188252621506109E+01
    0.10486995410997748124E+01
    0.10729067526073383654E+01
    0.86853300011228606881E+00
    0.11568615956041183868E+01
    0.11582853271188200406E+01
    0.11744685229974662910E+01
    0.82812635858019911783E+00
    0.80817084109682302273E+00
    0.69668704773993761492E+00
    0.78593873107401801548E+00
    0.72138201103375576562E+00
    0.67592693820461546839E+00
    0.11704334914227714215E+01
    0.11200494399515072974E+01
    0.11520579252805085435E+01
    0.11599988366616595936E+01
    0.11649866416252778745E+01
    0.11844951521557762764E+01
    0.12065162976701737652E+01
    0.12011995349163873126E+01
    0.10419354165416605529E+01
    0.11932358535837570557E+01
    0.11790567171377879241E+01
    0.11065589943314368959E+01
    0.11475482406710286742E+01
    0.11419110929921350017E+01
    0.10950347111327725091E+01
    0.11815174924831626235E+01
    0.11840259664928012295E+01
    0.10099793747250105369E+01
    0.10657682775037191636E+01
    0.70580149673649339448E+00
    0.73679706103720143950E+00
    0.11976940612616568949E+01
    0.12001007614087906283E+01
    0.65624152402395163897E+00
    0.65828082425934342226E+00
    0.12103514050849177863E+01
    0.10599810849285491443E+01
    0.10591616538665380443E+01
    0.11560752730107430875E+01
    0.89264786208386848188E+00
    0.12036089131747278458E+01
    0.11190828358029780709E+01
    0.95316495285500346668E+00
    0.11608330213952657850E+01
    0.11984882488384114296E+01
    0.11909236512237586503E+01
    0.11866799943169668019E+01
    0.11898428897025652429E+01
    0.89612921045161464395E+00
    0.97384729501815536779E+00
    0.11832178616040152086E+01
    0.12096405448109699421E+01
    0.11664014050446556148E+01
    0.11131884669833549406E+01
    0.11647477330996414135E+01
    0.11968009692116339249E+01
    0.10611026299743062662E+01
    0.10527110464412303692E+01
    0.85079787522956440426E+00
    0.79617762486005116962E+00
    0.11287983315844707377E+01
    0.10962419454315854850E+01
    0.66503909976127117964E+00
    0.65998406940162235301E+00
    0.73469279070778048535E+00
    0.72616484846310302981E+00
    0.10473403985468643373E+01
    0.11876133367413088671E+01
    0.12565307235507807704E+01
    0.12676327581777755427E+01
    0.12655535150344092710E+01
    0.12620203152630591337E+01
    0.12304360255353030684E+01
    0.11764996389056128212E+01
    0.12092799663163393831E+01
    0.11952533209177316209E+01
    0.11395839550464614831E+01
    0.10253601134516006077E+01
    0.86222052816004912668E+00
    0.71937420955773356823E+00
    0.65923273873757826102E+00
    0.67742241634661137795E+00
    0.68793647391129209012E+00
    0.68677569477019706490E+00
    0.66748183569113217484E+00
    0.65662928439603152064E+00
    0.67195982817571031642E+00
    0.85950046670977342522E+00
    0.89657178808988913232E+00
    0.87896467956344381811E+00
    0.82563692566412627549E+00
    0.74434548855840720893E+00
    0.67840675766798674839E+00
    0.66382640527424685573E+00
