# vtk DataFile Version 3.0
LAPLACIEN  2D
ASCII
DATASET UNSTRUCTURED_GRID
 POINTS         391  float
  0.50371505999999999       0.50367786999999997        0.0000000000000000     
  0.29013556000000001       0.29014535000000002        0.0000000000000000     
  0.70165584999999997       0.71206597999999999        0.0000000000000000     
  0.70304188999999995       0.30176619999999998        0.0000000000000000     
  0.30920671999999999       0.71149227999999998        0.0000000000000000     
  0.79044983999999996       0.49884783999999999        0.0000000000000000     
  0.49102621000000002       0.20968644000000000        0.0000000000000000     
  0.49912957000000002       0.77208717000000004        0.0000000000000000     
  0.21724072999999999       0.48989389000000000        0.0000000000000000     
  0.83255933999999998       0.83046598000000005        0.0000000000000000     
  0.16646774000000000       0.17015694000000001        0.0000000000000000     
  0.83054514999999995       0.16736480000000001        0.0000000000000000     
  0.16953130999999999       0.83265739000000005        0.0000000000000000     
  0.42166445000000002       0.36345201999999999        0.0000000000000000     
  0.64462200999999997       0.56347807999999999        0.0000000000000000     
  0.35324633999999999       0.56311191000000005        0.0000000000000000     
  0.65456411000000003       0.84856860999999995        0.0000000000000000     
  0.35141477999999998       0.15563974000000000        0.0000000000000000     
  0.15290967000000000       0.35206625000000003        0.0000000000000000     
  0.82942241000000005       0.34936866000000000        0.0000000000000000     
  0.84390527000000004       0.64441694999999999        0.0000000000000000     
  0.63699174999999997       0.14284276000000001        0.0000000000000000     
  0.15620682999999999       0.64648446999999998        0.0000000000000000     
  0.36426062999999997       0.85756310999999996        0.0000000000000000     
  0.63489340999999999       0.40519052000000000        0.0000000000000000     
  0.52518872999999999       0.65957078000000002        0.0000000000000000     
  0.32158959999999998       0.42298103999999997        0.0000000000000000     
  0.58861710000000000       0.31711036999999997        0.0000000000000000     
  0.42078418000000001       0.69497151999999995        0.0000000000000000     
  0.48608786999999998       0.89334152000000000        0.0000000000000000     
   9.7084320000000002E-002  0.50000000000000000        0.0000000000000000     
  0.90291568000000000       0.50000000000000000        0.0000000000000000     
  0.51392453000000005       0.10668648999999999        0.0000000000000000     
  0.59792566999999996       0.73122754000000001        0.0000000000000000     
  0.74510058999999995       0.41124730999999998        0.0000000000000000     
  0.73212551999999997       0.90191560000000004        0.0000000000000000     
   9.7784830000000003E-002  0.26957329000000002        0.0000000000000000     
  0.26711221000000002        9.8671499999999995E-002   0.0000000000000000     
  0.90191560000000004       0.26787448000000003        0.0000000000000000     
  0.90118569000000004       0.73039821000000005        0.0000000000000000     
  0.73122947000000005        9.8017859999999998E-002   0.0000000000000000     
   9.8084400000000002E-002  0.73212551999999997        0.0000000000000000     
  0.26957329000000002       0.90221516999999996        0.0000000000000000     
  0.39283522999999998       0.25360379000000000        0.0000000000000000     
  0.74480864000000002       0.60495284999999999        0.0000000000000000     
  0.25505132000000003       0.60593640999999998        0.0000000000000000     
  0.52159297999999998       0.40671636000000000        0.0000000000000000     
  0.40768852000000000       0.47699891000000000        0.0000000000000000     
   9.1467049999999994E-002   9.1876959999999994E-002   0.0000000000000000     
  0.90842484999999995       0.90819225000000003        0.0000000000000000     
  0.90820104999999995        9.1566729999999999E-002   0.0000000000000000     
   9.1807449999999999E-002  0.90843574000000005        0.0000000000000000     
  0.27098960000000000       0.20527094000000001        0.0000000000000000     
  0.73457293999999995       0.79835387000000002        0.0000000000000000     
  0.79817773000000003       0.25713470999999999        0.0000000000000000     
  0.20747797000000001       0.72863946000000002        0.0000000000000000     
  0.20175195000000001       0.27583914999999998        0.0000000000000000     
  0.79603889000000005       0.72159035000000005        0.0000000000000000     
  0.71761666000000002       0.19748431999999999        0.0000000000000000     
  0.28462607000000001       0.80251899999999998        0.0000000000000000     
  0.69134598999999997       0.49261972999999998        0.0000000000000000     
  0.44720578999999999       0.58582935999999997        0.0000000000000000     
  0.24242269999999999       0.37228174000000003        0.0000000000000000     
  0.38265623999999998       0.93072131999999996        0.0000000000000000     
  0.60971754000000000       0.91988369000000003        0.0000000000000000     
   7.9163609999999995E-002  0.60979116000000000        0.0000000000000000     
  0.92010649000000000       0.61081183999999999        0.0000000000000000     
  0.61954008999999999        7.1530830000000004E-002   0.0000000000000000     
  0.91882012999999996       0.38917363999999999        0.0000000000000000     
  0.39086346000000000        8.0652249999999995E-002   0.0000000000000000     
   7.9183480000000001E-002  0.38966213000000000        0.0000000000000000     
  0.59114111999999996       0.49294315000000000        0.0000000000000000     
  0.63337980999999999       0.64485914000000000        0.0000000000000000     
  0.50012352000000004       0.29676539000000002        0.0000000000000000     
  0.82552601000000003       0.92753492000000004        0.0000000000000000     
  0.92774772999999999       0.82498556999999995        0.0000000000000000     
   7.1970870000000006E-002  0.17510291000000000        0.0000000000000000     
  0.17422821999999999        7.2635640000000001E-002   0.0000000000000000     
  0.82510813000000005        7.2134840000000006E-002   0.0000000000000000     
  0.92754665000000003       0.17446275999999999        0.0000000000000000     
  0.17501022999999999       0.92789951999999998        0.0000000000000000     
   7.2464680000000004E-002  0.82554053000000005        0.0000000000000000     
  0.30731587999999999       0.50885354999999999        0.0000000000000000     
  0.59033407999999998       0.22171178999999999        0.0000000000000000     
  0.40109191999999999       0.78725542000000004        0.0000000000000000     
  0.35420917000000002       0.63754104000000000        0.0000000000000000     
  0.15983976999999999       0.56665573000000002        0.0000000000000000     
  0.84108459999999996       0.56757886999999996        0.0000000000000000     
  0.83902096000000004       0.43344338999999998        0.0000000000000000     
  0.43230028999999998       0.16004268999999999        0.0000000000000000     
  0.57536027999999995       0.83041363999999995        0.0000000000000000     
  0.15771898000000001       0.42747892999999998        0.0000000000000000     
  0.34021692999999997       0.34221559000000001        0.0000000000000000     
  0.56002271999999997       0.57501117999999996        0.0000000000000000     
  0.65344329000000001       0.78147597999999996        0.0000000000000000     
   0.0000000000000000        0.0000000000000000        0.0000000000000000     
   1.0000000000000000        0.0000000000000000        0.0000000000000000     
   1.0000000000000000        1.0000000000000000        0.0000000000000000     
   0.0000000000000000        1.0000000000000000        0.0000000000000000     
  0.11111111000000000        0.0000000000000000        0.0000000000000000     
  0.22222222000000000        0.0000000000000000        0.0000000000000000     
  0.33333332999999998        0.0000000000000000        0.0000000000000000     
  0.44444444000000000        0.0000000000000000        0.0000000000000000     
  0.55555555999999995        0.0000000000000000        0.0000000000000000     
  0.66666667000000002        0.0000000000000000        0.0000000000000000     
  0.77777777999999997        0.0000000000000000        0.0000000000000000     
  0.88888889000000004        0.0000000000000000        0.0000000000000000     
   1.0000000000000000       0.11111111000000000        0.0000000000000000     
   1.0000000000000000       0.22222222000000000        0.0000000000000000     
   1.0000000000000000       0.33333332999999998        0.0000000000000000     
   1.0000000000000000       0.44444444000000000        0.0000000000000000     
   1.0000000000000000       0.55555555999999995        0.0000000000000000     
   1.0000000000000000       0.66666667000000002        0.0000000000000000     
   1.0000000000000000       0.77777777999999997        0.0000000000000000     
   1.0000000000000000       0.88888889000000004        0.0000000000000000     
  0.88888889000000004        1.0000000000000000        0.0000000000000000     
  0.77777777999999997        1.0000000000000000        0.0000000000000000     
  0.66666667000000002        1.0000000000000000        0.0000000000000000     
  0.55555555999999995        1.0000000000000000        0.0000000000000000     
  0.44444444000000000        1.0000000000000000        0.0000000000000000     
  0.33333332999999998        1.0000000000000000        0.0000000000000000     
  0.22222222000000000        1.0000000000000000        0.0000000000000000     
  0.11111111000000000        1.0000000000000000        0.0000000000000000     
   0.0000000000000000       0.11111111000000000        0.0000000000000000     
   0.0000000000000000       0.22222222000000000        0.0000000000000000     
[...]
 CELL_DATA         354
 SCALARS C float
 LOOKUP_TABLE default
    0.86870708593654588636E+00
    0.11259392632760021336E+01
    0.66929264131453414244E+00
    0.71113835610183007141E+00
    0.96406894477836391211E+00
    0.10446324711126531160E+01
    0.11455755606188580131E+01
    0.11062369602178283579E+01
    0.11816832407833752772E+01
    0.11823418944327404034E+01
    0.11630332948702957196E+01
    0.11803976785326069088E+01
    0.11592549700962810899E+01
    0.11595474637854652489E+01
    0.11661429709971220525E+01
    0.11604488171429374610E+01
    0.11664459900509533963E+01
    0.11811212035190525871E+01
    0.11843147232290009985E+01
    0.11797252376302296284E+01
    0.11662246165253273844E+01
    0.11687006018570211818E+01
    0.11863132042610338157E+01
    0.11769069026705825110E+01
    0.11866111017733351751E+01
    0.11834197562006931737E+01
    0.11843786397068611915E+01
    0.11867816183402646324E+01
    0.11498348453239151112E+01
    0.11058058194567987886E+01
    0.96043309507132668124E+00
    0.10467560420019461631E+01
    0.87228914768042120631E+00
    0.78096667799822672151E+00
    0.68005137759128087005E+00
    0.72048684335649793020E+00
    0.66924352981128387707E+00
    0.67757669602710501877E+00
    0.71976515601773094488E+00
    0.69002459927029113906E+00
    0.73234930431507427873E+00
    0.73544430328700161059E+00
    0.75139888974895807650E+00
    0.74039180950725036467E+00
    0.74197368547645259351E+00
    0.70603464422210371332E+00
    0.67937449101225233505E+00
    0.69004584644826794104E+00
    0.67155181240104278029E+00
    0.65848220950345548452E+00
    0.67775273319639250946E+00
    0.66742788665723407071E+00
    0.90312639541264172482E+00
    0.92271637429724151502E+00
    0.98811657753473158827E+00
    0.95043306042359021468E+00
    0.99265257932794792595E+00
    0.96967247706684367436E+00
    0.92863775399312054049E+00
    0.95009322082973846069E+00
    0.88790799792771957222E+00
    0.82338713398206186955E+00
    0.72609857956809309432E+00
    0.77470701852747070326E+00
    0.69345434644657777401E+00
    0.66249184755407430902E+00
    0.67104377744446797038E+00
    0.66361522471564526882E+00
    0.11460383639453948224E+01
    0.11703392087897301899E+01
    0.11788270555451227928E+01
    0.11588879625450452249E+01
    0.11748589221461771537E+01
    0.11681796732242535342E+01
    0.11937393408791403537E+01
    0.11973072998498515140E+01
    0.12003488649777267483E+01
    0.11815470068974966988E+01
    0.11687187447673854646E+01
    0.11915463366465213202E+01
    0.11079394828297208786E+01
    0.11386196498962206647E+01
    0.11971679307408058524E+01
    0.11277543583749525258E+01
    0.11551136542965605436E+01
    0.11223181695216239984E+01
    0.10394901965760672269E+01
    0.11483434371714427158E+01
    0.11482396672090753320E+01
    0.11405230782525517252E+01
    0.10915570246048837966E+01
    0.11377974527478953437E+01
    0.11082256149664420075E+01
    0.10005248455655262330E+01
    0.98081109620289008699E+00
    0.10510865714869237486E+01
    0.11518967132256938690E+01
    0.12014976077239685193E+01
    0.11706784656750599538E+01
    0.11947458178883465507E+01
    0.11803772407936432565E+01
    0.11993960978512094862E+01
    0.11971494234229949072E+01
    0.11383570523775097261E+01
    0.11367649764678073865E+01
    0.11042403523417922973E+01
    0.11039135256981540412E+01
    0.11358662045269471985E+01
    0.11634035426287085979E+01
    0.11364153563754113563E+01
    0.98699347006176929575E+00
    0.11326971644583694321E+01
    0.10552545310988050709E+01
    0.10426765900403680565E+01
    0.11935849165093650459E+01
    0.11250333382841668506E+01
    0.11772719869079932842E+01
    0.11976677660176942020E+01
    0.12072611942983038080E+01
    0.11319312707528119688E+01
    0.11794609909087689914E+01
    0.83666161764189439509E+00
    0.92951329431553031402E+00
    0.76983429742970344023E+00
    0.94644665629811164376E+00
    0.10008766156976474093E+01
    0.77808045115910495770E+00
    0.82357322887065853578E+00
    0.11347465040598274655E+01
    0.11860682781273232944E+01
    0.10959003020891902036E+01
    0.12015100351749137264E+01
    0.11951541499928277634E+01
    0.10982580540166053673E+01
    0.11403776124609747988E+01
    0.11972114727838838455E+01
    0.11771442071422262288E+01
    0.11926944516078883396E+01
    0.11799735554927106573E+01
    0.11636271455793463225E+01
    0.11892855824645323093E+01
    0.11959149849994259451E+01
    0.73871700956195729404E+00
    0.71716158619304870570E+00
    0.67490849222022464282E+00
    0.80975606900331209559E+00
    0.79484428456230205029E+00
    0.67972453707445767979E+00
    0.68603297580618483043E+00
    0.11648119171667032923E+01
    0.11461703800259739339E+01
    0.11388342891779117405E+01
    0.11585801607830845672E+01
    0.11199879452269443370E+01
    0.11564362055572470211E+01
    0.11968590489037502778E+01
    0.11804209096216768948E+01
    0.11665384964148648450E+01
    0.11978600732234769843E+01
    0.11860341985590290292E+01
    0.11896634563440369181E+01
    0.11814521014273327015E+01
    0.11917911553737321473E+01
    0.12000651792912948590E+01
    0.12025107638839913626E+01
    0.87734248129264758020E+00
    0.97584555484572743644E+00
    0.87650223749253353134E+00
    0.96570159601859306697E+00
    0.10200513275756555309E+01
    0.11908615070145509574E+01
    0.11654564341840285557E+01
    0.11908864386955986259E+01
    0.11892528698044726454E+01
    0.11662907347691735538E+01
    0.11429355915664021204E+01
    0.11906756380866045930E+01
    0.11942230995149631934E+01
    0.11252182845345883866E+01
    0.11639689601649996220E+01
    0.11700671710678962611E+01
    0.11970228417358432793E+01
    0.11788865185213692754E+01
    0.11984470972049514614E+01
    0.11928431264074834672E+01
    0.11017865385148946089E+01
    0.11901074096463983842E+01
    0.11350041974079876361E+01
    0.11561146499168657442E+01
    0.11876969572949058751E+01
    0.11410542103176803952E+01
    0.11507525089894619086E+01
    0.11377557981193788805E+01
    0.11454653592489392189E+01
    0.11094015614501717693E+01
    0.85959800074621606214E+00
    0.10579409861158706185E+01
    0.93934069578561274483E+00
    0.91158564994808077842E+00
    0.10148527576920660653E+01
    0.84656005643242948633E+00
    0.77969168121720933140E+00
    0.86044793673906327935E+00
    0.78480901955129034331E+00
    0.92208766925580032403E+00
    0.10548090478411793480E+01
    0.11465461121414382006E+01
    0.11215106589615808641E+01
    0.11474434950078620243E+01
    0.11427381173129997904E+01
    0.11888796391576799127E+01
    0.11884224909517433488E+01
    0.11998341347255729872E+01
    0.12015771606002316751E+01
    0.11930201763303274198E+01
    0.11807317186128529762E+01
    0.12009336239627872445E+01
    0.11974763909614061230E+01
    0.11830961123609275987E+01
    0.10450665693122063171E+01
    0.10079865158935765734E+01
    0.10030884589981385879E+01
    0.11950549416690940951E+01
    0.11079957773922393116E+01
    0.11885216617065172962E+01
    0.77768524433150343356E+00
    0.82070278927759421350E+00
    0.94195763630683726486E+00
    0.92520837382142850913E+00
    0.93864166384738201288E+00
    0.10315221262166534011E+01
    0.10409715514702708727E+01
    0.11097112912313256139E+01
    0.11811858389475671238E+01
    0.12144593678664650227E+01
    0.12103465386231395673E+01
    0.12052735421706552987E+01
    0.11523110119217159220E+01
    0.11628664762486760065E+01
    0.11189242098261902303E+01
    0.11518677734029414417E+01
    0.11971518506619833744E+01
    0.10999276174249614790E+01
    0.11293217612405310746E+01
    0.11640266634703348991E+01
    0.11753579537561491541E+01
    0.90742317627459079254E+00
    0.79982093550675070759E+00
    0.75336743770826208877E+00
    0.11663704115245303594E+01
    0.10708545053744182862E+01
    0.10515242983745611838E+01
    0.12074212725534017032E+01
    0.11910976504620311989E+01
    0.11562578503744811442E+01
    0.11874364323602117910E+01
    0.12028130946541673030E+01
    0.11985832793404629371E+01
    0.10493372540996448450E+01
    0.10735661310969677462E+01
    0.86975607848443492465E+00
    0.11569660726030763787E+01
    0.11584798272347283099E+01
    0.11747257788620086849E+01
    0.82947284975038504395E+00
    0.80956467434548340378E+00
    0.69821578182842958249E+00
    0.78735973415804938469E+00
    0.72291461731113648703E+00
    0.67745997262586366006E+00
    0.11707244528552391838E+01
    0.11201923659893973095E+01
    0.11520986337786083276E+01
    0.11600704739191014525E+01
    0.11656457789499659050E+01
    0.11847733032336043024E+01
    0.12067773616294414918E+01
    0.12015652817954416420E+01
    0.10425111895133383211E+01
    0.11938388183411219323E+01
    0.11799298152541886076E+01
    0.11070097375194405398E+01
    0.11476750374647171071E+01
    0.11420738889730925880E+01
    0.10949768254946983248E+01
    0.11817234925839805726E+01
    0.11842512922903540851E+01
    0.10108203974280600690E+01
    0.10663339089410712734E+01
    0.70734441988847440719E+00
    0.73830858360649243011E+00
    0.11981682800474269257E+01
    0.12005897988132605558E+01
    0.65770955253702600984E+00
    0.65978187615656791465E+00
    0.12107449866236863478E+01
    0.10605851631144176395E+01
    0.10597696554866167240E+01
    0.11561389427664661156E+01
    0.89386199920887821069E+00
    0.12039874214797596785E+01
    0.11193898104691770712E+01
    0.95416505059792899868E+00
    0.11608947649505081401E+01
    0.11989953864022779850E+01
    0.11911537141527182015E+01
    0.11873543903269543343E+01
    0.11900805055963610268E+01
    0.89734695039798484384E+00
    0.97488519236575543747E+00
    0.11839410984927769555E+01
    0.12098660692234097791E+01
    0.11665678694476659949E+01
    0.11137130259098784180E+01
    0.11649675368073380000E+01
    0.11970241180907295053E+01
    0.10608498282798768386E+01
    0.10533774485851998826E+01
    0.85207878429256167507E+00
    0.79753087122772226003E+00
    0.11293929363577335234E+01
    0.10966481674240715627E+01
    0.66650332447469162744E+00
    0.66142697355098190037E+00
    0.73575626760083001621E+00
    0.72720833308911181359E+00
    0.10479126236255076332E+01
    0.11880721366061772759E+01
    0.12566011008280928429E+01
    0.12675171998898138170E+01
    0.12653996070325943535E+01
    0.12620096031237435508E+01
    0.12307557544519638348E+01
    0.11768900676139484318E+01
    0.12096943848391537024E+01
    0.11956720316684930072E+01
    0.11399900436110543822E+01
    0.10260261653504163526E+01
    0.86343518962776666381E+00
    0.72087542845670227187E+00
    0.66076200191562850517E+00
    0.67896049736037555888E+00
    0.68947350868383017186E+00
    0.68830764345628536738E+00
    0.66902626693026223670E+00
    0.65813173403451363797E+00
    0.67332216274945400070E+00
    0.86072723111570814680E+00
    0.89770754842129285578E+00
    0.88014534210148165361E+00
    0.82693152627087807005E+00
    0.74580212061118522637E+00
    0.67993444562402460818E+00
    0.66525909350059508895E+00
