# vtk DataFile Version 3.0
LAPLACIEN  2D
ASCII
DATASET UNSTRUCTURED_GRID
 POINTS         391  float
  0.50371505999999999       0.50367786999999997        0.0000000000000000     
  0.29013556000000001       0.29014535000000002        0.0000000000000000     
  0.70165584999999997       0.71206597999999999        0.0000000000000000     
  0.70304188999999995       0.30176619999999998        0.0000000000000000     
  0.30920671999999999       0.71149227999999998        0.0000000000000000     
  0.79044983999999996       0.49884783999999999        0.0000000000000000     
  0.49102621000000002       0.20968644000000000        0.0000000000000000     
  0.49912957000000002       0.77208717000000004        0.0000000000000000     
  0.21724072999999999       0.48989389000000000        0.0000000000000000     
  0.83255933999999998       0.83046598000000005        0.0000000000000000     
  0.16646774000000000       0.17015694000000001        0.0000000000000000     
  0.83054514999999995       0.16736480000000001        0.0000000000000000     
  0.16953130999999999       0.83265739000000005        0.0000000000000000     
  0.42166445000000002       0.36345201999999999        0.0000000000000000     
  0.64462200999999997       0.56347807999999999        0.0000000000000000     
  0.35324633999999999       0.56311191000000005        0.0000000000000000     
  0.65456411000000003       0.84856860999999995        0.0000000000000000     
  0.35141477999999998       0.15563974000000000        0.0000000000000000     
  0.15290967000000000       0.35206625000000003        0.0000000000000000     
  0.82942241000000005       0.34936866000000000        0.0000000000000000     
  0.84390527000000004       0.64441694999999999        0.0000000000000000     
  0.63699174999999997       0.14284276000000001        0.0000000000000000     
  0.15620682999999999       0.64648446999999998        0.0000000000000000     
  0.36426062999999997       0.85756310999999996        0.0000000000000000     
  0.63489340999999999       0.40519052000000000        0.0000000000000000     
  0.52518872999999999       0.65957078000000002        0.0000000000000000     
  0.32158959999999998       0.42298103999999997        0.0000000000000000     
  0.58861710000000000       0.31711036999999997        0.0000000000000000     
  0.42078418000000001       0.69497151999999995        0.0000000000000000     
  0.48608786999999998       0.89334152000000000        0.0000000000000000     
   9.7084320000000002E-002  0.50000000000000000        0.0000000000000000     
  0.90291568000000000       0.50000000000000000        0.0000000000000000     
  0.51392453000000005       0.10668648999999999        0.0000000000000000     
  0.59792566999999996       0.73122754000000001        0.0000000000000000     
  0.74510058999999995       0.41124730999999998        0.0000000000000000     
  0.73212551999999997       0.90191560000000004        0.0000000000000000     
   9.7784830000000003E-002  0.26957329000000002        0.0000000000000000     
  0.26711221000000002        9.8671499999999995E-002   0.0000000000000000     
  0.90191560000000004       0.26787448000000003        0.0000000000000000     
  0.90118569000000004       0.73039821000000005        0.0000000000000000     
  0.73122947000000005        9.8017859999999998E-002   0.0000000000000000     
   9.8084400000000002E-002  0.73212551999999997        0.0000000000000000     
  0.26957329000000002       0.90221516999999996        0.0000000000000000     
  0.39283522999999998       0.25360379000000000        0.0000000000000000     
  0.74480864000000002       0.60495284999999999        0.0000000000000000     
  0.25505132000000003       0.60593640999999998        0.0000000000000000     
  0.52159297999999998       0.40671636000000000        0.0000000000000000     
  0.40768852000000000       0.47699891000000000        0.0000000000000000     
   9.1467049999999994E-002   9.1876959999999994E-002   0.0000000000000000     
  0.90842484999999995       0.90819225000000003        0.0000000000000000     
  0.90820104999999995        9.1566729999999999E-002   0.0000000000000000     
   9.1807449999999999E-002  0.90843574000000005        0.0000000000000000     
  0.27098960000000000       0.20527094000000001        0.0000000000000000     
  0.73457293999999995       0.79835387000000002        0.0000000000000000     
  0.79817773000000003       0.25713470999999999        0.0000000000000000     
  0.20747797000000001       0.72863946000000002        0.0000000000000000     
  0.20175195000000001       0.27583914999999998        0.0000000000000000     
  0.79603889000000005       0.72159035000000005        0.0000000000000000     
  0.71761666000000002       0.19748431999999999        0.0000000000000000     
  0.28462607000000001       0.80251899999999998        0.0000000000000000     
  0.69134598999999997       0.49261972999999998        0.0000000000000000     
  0.44720578999999999       0.58582935999999997        0.0000000000000000     
  0.24242269999999999       0.37228174000000003        0.0000000000000000     
  0.38265623999999998       0.93072131999999996        0.0000000000000000     
  0.60971754000000000       0.91988369000000003        0.0000000000000000     
   7.9163609999999995E-002  0.60979116000000000        0.0000000000000000     
  0.92010649000000000       0.61081183999999999        0.0000000000000000     
  0.61954008999999999        7.1530830000000004E-002   0.0000000000000000     
  0.91882012999999996       0.38917363999999999        0.0000000000000000     
  0.39086346000000000        8.0652249999999995E-002   0.0000000000000000     
   7.9183480000000001E-002  0.38966213000000000        0.0000000000000000     
  0.59114111999999996       0.49294315000000000        0.0000000000000000     
  0.63337980999999999       0.64485914000000000        0.0000000000000000     
  0.50012352000000004       0.29676539000000002        0.0000000000000000     
  0.82552601000000003       0.92753492000000004        0.0000000000000000     
  0.92774772999999999       0.82498556999999995        0.0000000000000000     
   7.1970870000000006E-002  0.17510291000000000        0.0000000000000000     
  0.17422821999999999        7.2635640000000001E-002   0.0000000000000000     
  0.82510813000000005        7.2134840000000006E-002   0.0000000000000000     
  0.92754665000000003       0.17446275999999999        0.0000000000000000     
  0.17501022999999999       0.92789951999999998        0.0000000000000000     
   7.2464680000000004E-002  0.82554053000000005        0.0000000000000000     
  0.30731587999999999       0.50885354999999999        0.0000000000000000     
  0.59033407999999998       0.22171178999999999        0.0000000000000000     
  0.40109191999999999       0.78725542000000004        0.0000000000000000     
  0.35420917000000002       0.63754104000000000        0.0000000000000000     
  0.15983976999999999       0.56665573000000002        0.0000000000000000     
  0.84108459999999996       0.56757886999999996        0.0000000000000000     
  0.83902096000000004       0.43344338999999998        0.0000000000000000     
  0.43230028999999998       0.16004268999999999        0.0000000000000000     
  0.57536027999999995       0.83041363999999995        0.0000000000000000     
  0.15771898000000001       0.42747892999999998        0.0000000000000000     
  0.34021692999999997       0.34221559000000001        0.0000000000000000     
  0.56002271999999997       0.57501117999999996        0.0000000000000000     
  0.65344329000000001       0.78147597999999996        0.0000000000000000     
   0.0000000000000000        0.0000000000000000        0.0000000000000000     
   1.0000000000000000        0.0000000000000000        0.0000000000000000     
   1.0000000000000000        1.0000000000000000        0.0000000000000000     
   0.0000000000000000        1.0000000000000000        0.0000000000000000     
  0.11111111000000000        0.0000000000000000        0.0000000000000000     
  0.22222222000000000        0.0000000000000000        0.0000000000000000     
  0.33333332999999998        0.0000000000000000        0.0000000000000000     
  0.44444444000000000        0.0000000000000000        0.0000000000000000     
  0.55555555999999995        0.0000000000000000        0.0000000000000000     
  0.66666667000000002        0.0000000000000000        0.0000000000000000     
  0.77777777999999997        0.0000000000000000        0.0000000000000000     
  0.88888889000000004        0.0000000000000000        0.0000000000000000     
   1.0000000000000000       0.11111111000000000        0.0000000000000000     
   1.0000000000000000       0.22222222000000000        0.0000000000000000     
   1.0000000000000000       0.33333332999999998        0.0000000000000000     
   1.0000000000000000       0.44444444000000000        0.0000000000000000     
   1.0000000000000000       0.55555555999999995        0.0000000000000000     
   1.0000000000000000       0.66666667000000002        0.0000000000000000     
   1.0000000000000000       0.77777777999999997        0.0000000000000000     
   1.0000000000000000       0.88888889000000004        0.0000000000000000     
  0.88888889000000004        1.0000000000000000        0.0000000000000000     
  0.77777777999999997        1.0000000000000000        0.0000000000000000     
  0.66666667000000002        1.0000000000000000        0.0000000000000000     
  0.55555555999999995        1.0000000000000000        0.0000000000000000     
  0.44444444000000000        1.0000000000000000        0.0000000000000000     
  0.33333332999999998        1.0000000000000000        0.0000000000000000     
  0.22222222000000000        1.0000000000000000        0.0000000000000000     
  0.11111111000000000        1.0000000000000000        0.0000000000000000     
   0.0000000000000000       0.11111111000000000        0.0000000000000000     
   0.0000000000000000       0.22222222000000000        0.0000000000000000     
[...]
 CELL_DATA         354
 SCALARS C float
 LOOKUP_TABLE default
    0.74259794032516968088E+00
    0.11472269434966837487E+01
    0.51939175481704435988E+00
    0.59886591283084689152E+00
    0.85995504880642104073E+00
    0.97493335732771901903E+00
    0.12363279157920805673E+01
    0.11079705188982431618E+01
    0.13430392678846834187E+01
    0.14129506975435595084E+01
    0.14770924644581782115E+01
    0.14632948815473691972E+01
    0.14867701820255083689E+01
    0.14906479125043885503E+01
    0.14830635432863092937E+01
    0.14874819291046674774E+01
    0.14545749268359713380E+01
    0.14091372465550011661E+01
    0.12603976226847566355E+01
    0.13339704757968098292E+01
    0.12176014052225760942E+01
    0.12549127857801618546E+01
    0.13382792941377932294E+01
    0.12993164225187476823E+01
    0.13476209923095905374E+01
    0.13275073839464797132E+01
    0.12580724811992589629E+01
    0.12962059016568874270E+01
    0.11854600192926167956E+01
    0.10803889242274613558E+01
    0.85788004564185738055E+00
    0.97267096350254655945E+00
    0.74686340536837569903E+00
    0.63492586922193516852E+00
    0.52210720894698603445E+00
    0.56621816444929917722E+00
    0.51321843007884671017E+00
    0.52082176179048078613E+00
    0.56551545766898714263E+00
    0.53175179382571080566E+00
    0.58021799832113685191E+00
    0.58342193771285788539E+00
    0.60219893900869547743E+00
    0.58866731807825134482E+00
    0.59080898494082467742E+00
    0.54848949164118432353E+00
    0.52191622684394844978E+00
    0.53283047564953434083E+00
    0.51711480847527524496E+00
    0.50781928043891577662E+00
    0.54727764130515832441E+00
    0.52843571009630907476E+00
    0.78362358183255453881E+00
    0.80698216740431649718E+00
    0.88965575416879238979E+00
    0.84142370169634861377E+00
    0.89817489289297269828E+00
    0.86863703846097428674E+00
    0.81622977509422134368E+00
    0.84282834146403340370E+00
    0.76648023249291696857E+00
    0.68658636542539996928E+00
    0.57236626903928689014E+00
    0.62944226072599984700E+00
    0.53720971664757266595E+00
    0.50594730697670220465E+00
    0.53691327240816977273E+00
    0.51795545614109816945E+00
    0.14362283736411960433E+01
    0.14890244015338649497E+01
    0.14862741314534002601E+01
    0.14736008549665871037E+01
    0.14936186643656501616E+01
    0.14870480752551027415E+01
    0.14674114278443464165E+01
    0.14246083271211231747E+01
    0.14525244752861008468E+01
    0.14914410968501046195E+01
    0.12189037474878803291E+01
    0.13100652418201357285E+01
    0.10741497845687211221E+01
    0.11585551000333096372E+01
    0.13179215588922614799E+01
    0.11212632816839196437E+01
    0.14457219214489418491E+01
    0.13227019105367050500E+01
    0.11987183689097458128E+01
    0.14153410404159629810E+01
    0.14367379582337118649E+01
    0.13842470351687257146E+01
    0.12651638913482601279E+01
    0.11265052534417392405E+01
    0.10888556468069814365E+01
    0.91829276486192668028E+00
    0.88525601950088417258E+00
    0.98648579858470619719E+00
    0.11634057417888667985E+01
    0.14235624118377265823E+01
    0.14889207304235694274E+01
    0.14543062756556346393E+01
    0.14908381061769189202E+01
    0.14215033824865423995E+01
    0.14804357671751917636E+01
    0.14111848491739711342E+01
    0.14052206893917384978E+01
    0.12981119332455675064E+01
    0.12987391385433886271E+01
    0.14289206483431415862E+01
    0.12289860470258417990E+01
    0.11539082368873607720E+01
    0.89091498713839856194E+00
    0.11437066205998747126E+01
    0.99888079797408702021E+00
    0.98209137654143385809E+00
    0.13960727938571131368E+01
    0.11025953161023760440E+01
    0.12238878781152942032E+01
    0.13501602651329274174E+01
    0.13500152327836942856E+01
    0.11284302635445866425E+01
    0.12221952681797829676E+01
    0.70354564058884627720E+00
    0.81976822847321495491E+00
    0.62320013958366304863E+00
    0.84059049621417747389E+00
    0.91071996614369454814E+00
    0.63406165859212038072E+00
    0.68782254938859965776E+00
    0.11354414138752153551E+01
    0.12897688779869271869E+01
    0.10503269248886089038E+01
    0.13397953337063985835E+01
    0.12784113168758277634E+01
    0.10544711869713707664E+01
    0.11572027573769525510E+01
    0.14704078752353404447E+01
    0.14931826189042989306E+01
    0.14137679979128068286E+01
    0.14921646182377206191E+01
    0.14796031277883752164E+01
    0.14598674343727726654E+01
    0.14292256467312305368E+01
    0.58646589395319115301E+00
    0.56167256170877588595E+00
    0.51888930148743972470E+00
    0.67090584903867578337E+00
    0.65260145007355507829E+00
    0.52220782488220440776E+00
    0.52824744609701723697E+00
    0.14797503933983515712E+01
    0.14418790575553577238E+01
    0.13889532063991880673E+01
    0.14697256694090716778E+01
    0.13489359793553676869E+01
    0.14766652122106977973E+01
    0.14630664681912524117E+01
    0.14935112428544052854E+01
    0.14893758522364879404E+01
    0.14586883140516602175E+01
    0.14918802769569374789E+01
    0.13050929662984298574E+01
    0.14620074952608166363E+01
    0.14350409766879690387E+01
    0.14089621658918045632E+01
    0.13456870220308703168E+01
    0.75249205074448832775E+00
    0.87743158873952475929E+00
    0.75035374345856220568E+00
    0.86617933422164028467E+00
    0.93618465916311222053E+00
    0.14440639630834160023E+01
    0.14881622587031091420E+01
    0.14740427950904311238E+01
    0.14868510707113120617E+01
    0.14910517202748057031E+01
    0.11421908273289846925E+01
    0.12770939158827392390E+01
    0.13110935594925556824E+01
    0.11002096385030122327E+01
    0.12007425891467926604E+01
    0.14838863701049249677E+01
    0.14788208335248720360E+01
    0.14906869312667008209E+01
    0.14629970500754621021E+01
    0.14903060026799330728E+01
    0.10564060765789915486E+01
    0.12996881570093332670E+01
    0.11491361036144538410E+01
    0.11591503141089307682E+01
    0.12826508835460068703E+01
    0.14431770467085758280E+01
    0.14718248988099427166E+01
    0.14274751248275454607E+01
    0.14712468924044941332E+01
    0.13577877417857338038E+01
    0.73021637870714184437E+00
    0.99310888609307479413E+00
    0.83223863265974351577E+00
    0.79429868760843358455E+00
    0.93471735766684116431E+00
    0.71686830530077350065E+00
    0.63303610194719217574E+00
    0.73183028880465572641E+00
    0.63981905220467893969E+00
    0.81047137455680884344E+00
    0.12141946722195580133E+01
    0.14089796389363702378E+01
    0.13227903317739024835E+01
    0.14304449837605148765E+01
    0.14066520379588836054E+01
    0.13038375627576885840E+01
    0.12911226682665524201E+01
    0.14173632882235089880E+01
    0.13931467492922235962E+01
    0.14434029579392850806E+01
    0.14919710427072594428E+01
    0.14497726883586161684E+01
    0.14503550915054845838E+01
    0.14919540907844628386E+01
    0.12047171052132346070E+01
    0.11438980377440215452E+01
    0.11375923983232325565E+01
    0.13493535285625042341E+01
    0.10809348571237034076E+01
    0.12570849951993452454E+01
    0.63192525176373948170E+00
    0.68328618421600118005E+00
    0.83393854703397118922E+00
    0.81341078582217585247E+00
    0.82843070615365999032E+00
    0.95222308617304629585E+00
    0.97628602406882603049E+00
    0.10698354337094755362E+01
    0.12322167037519744515E+01
    0.13736344133084776864E+01
    0.13494314324559302243E+01
    0.14265581533458071561E+01
    0.14859148379136812856E+01
    0.14886969895944281994E+01
    0.13682851652144474297E+01
    0.14741826958396213598E+01
    0.13126787693718220407E+01
    0.10593628224283331285E+01
    0.11171016838955942774E+01
    0.14775974884362006456E+01
    0.14891806315622204693E+01
    0.79136442921562433206E+00
    0.65730119622463578644E+00
    0.60377737357632810244E+00
    0.12069168072712228579E+01
    0.10113411104096929893E+01
    0.98995494818698936967E+00
    0.14046510100423938994E+01
    0.14306446909518824029E+01
    0.12277107656818735393E+01
    0.14832569849971686260E+01
    0.14258342812532940336E+01
    0.14060954862187293735E+01
    0.98339327779275709229E+00
    0.10082486439886695351E+01
    0.74470025343591994549E+00
    0.14760996123987404349E+01
    0.14954081237886152067E+01
    0.14696457643674061266E+01
    0.69440752283200657402E+00
    0.66939058433872900000E+00
    0.54165991412668446081E+00
    0.64360468498902267953E+00
    0.56702470265222004731E+00
    0.52012437357612695266E+00
    0.14780624974001885796E+01
    0.13642663286146687884E+01
    0.14681578630489298121E+01
    0.14844433098647322744E+01
    0.12494113712660279703E+01
    0.14710969477695234886E+01
    0.14079443763250301114E+01
    0.13840282921751931866E+01
    0.97456231256164205234E+00
    0.13074368643101070830E+01
    0.12273167739306545254E+01
    0.10865641269221755216E+01
    0.14392073986374132044E+01
    0.14079245071948744972E+01
    0.12738441370291453403E+01
    0.14833829070806365813E+01
    0.14660144680498155001E+01
    0.92054537809864100950E+00
    0.10097576428614369881E+01
    0.55047639068948628349E+00
    0.58543157660517730623E+00
    0.13799867527969862380E+01
    0.13452509448604690334E+01
    0.50681506128272157952E+00
    0.50649003511480472639E+00
    0.13958734202126079627E+01
    0.10038018730639515219E+01
    0.99483806341121217010E+00
    0.14645756827319333926E+01
    0.77311602120457167953E+00
    0.13809291606125833063E+01
    0.13402729523365166653E+01
    0.85079578466459682140E+00
    0.14747126402858796723E+01
    0.13684858111355833188E+01
    0.14772049978127761438E+01
    0.12950546310517316861E+01
    0.14701046359580702827E+01
    0.77766645610057594240E+00
    0.87459934907162018014E+00
    0.12502846670873508650E+01
    0.14478463088495039379E+01
    0.14895763716020560263E+01
    0.10788804020840792042E+01
    0.14889336526097185498E+01
    0.14554637888764239140E+01
    0.12017118872525140993E+01
    0.98308728174124460075E+00
    0.72147501562059634939E+00
    0.65559225104035889764E+00
    0.11036567044646528046E+01
    0.10631794325527261780E+01
    0.51883235374758940317E+00
    0.51701038705478707946E+00
    0.63761491195476271976E+00
    0.62587072065993620829E+00
    0.97751554243340121886E+00
    0.12293626816253959699E+01
    0.13941760945888326262E+01
    0.14661942649353105761E+01
    0.14743427280476268937E+01
    0.14361539730099748269E+01
    0.13138508761804295055E+01
    0.11913731045126532138E+01
    0.12527460712916966834E+01
    0.12251718170060577062E+01
    0.11232179016393644133E+01
    0.94251145429353477834E+00
    0.73567341619637771633E+00
    0.56728641133039703348E+00
    0.50486445936375456967E+00
    0.52022046095377894037E+00
    0.53043568830173581929E+00
    0.52969547283201712240E+00
    0.51053352746851554667E+00
    0.50572093698753306512E+00
    0.53970303883279147072E+00
    0.73098121761546497321E+00
    0.77610202886438628411E+00
    0.75427218101947035578E+00
    0.69013021913430150356E+00
    0.59410126424356290986E+00
    0.52281828195188406738E+00
    0.52213879949815189541E+00
