# vtk DataFile Version 3.0
LAPLACIEN  2D
ASCII
DATASET UNSTRUCTURED_GRID
 POINTS         391  float
  0.50371505999999999       0.50367786999999997        0.0000000000000000     
  0.29013556000000001       0.29014535000000002        0.0000000000000000     
  0.70165584999999997       0.71206597999999999        0.0000000000000000     
  0.70304188999999995       0.30176619999999998        0.0000000000000000     
  0.30920671999999999       0.71149227999999998        0.0000000000000000     
  0.79044983999999996       0.49884783999999999        0.0000000000000000     
  0.49102621000000002       0.20968644000000000        0.0000000000000000     
  0.49912957000000002       0.77208717000000004        0.0000000000000000     
  0.21724072999999999       0.48989389000000000        0.0000000000000000     
  0.83255933999999998       0.83046598000000005        0.0000000000000000     
  0.16646774000000000       0.17015694000000001        0.0000000000000000     
  0.83054514999999995       0.16736480000000001        0.0000000000000000     
  0.16953130999999999       0.83265739000000005        0.0000000000000000     
  0.42166445000000002       0.36345201999999999        0.0000000000000000     
  0.64462200999999997       0.56347807999999999        0.0000000000000000     
  0.35324633999999999       0.56311191000000005        0.0000000000000000     
  0.65456411000000003       0.84856860999999995        0.0000000000000000     
  0.35141477999999998       0.15563974000000000        0.0000000000000000     
  0.15290967000000000       0.35206625000000003        0.0000000000000000     
  0.82942241000000005       0.34936866000000000        0.0000000000000000     
  0.84390527000000004       0.64441694999999999        0.0000000000000000     
  0.63699174999999997       0.14284276000000001        0.0000000000000000     
  0.15620682999999999       0.64648446999999998        0.0000000000000000     
  0.36426062999999997       0.85756310999999996        0.0000000000000000     
  0.63489340999999999       0.40519052000000000        0.0000000000000000     
  0.52518872999999999       0.65957078000000002        0.0000000000000000     
  0.32158959999999998       0.42298103999999997        0.0000000000000000     
  0.58861710000000000       0.31711036999999997        0.0000000000000000     
  0.42078418000000001       0.69497151999999995        0.0000000000000000     
  0.48608786999999998       0.89334152000000000        0.0000000000000000     
   9.7084320000000002E-002  0.50000000000000000        0.0000000000000000     
  0.90291568000000000       0.50000000000000000        0.0000000000000000     
  0.51392453000000005       0.10668648999999999        0.0000000000000000     
  0.59792566999999996       0.73122754000000001        0.0000000000000000     
  0.74510058999999995       0.41124730999999998        0.0000000000000000     
  0.73212551999999997       0.90191560000000004        0.0000000000000000     
   9.7784830000000003E-002  0.26957329000000002        0.0000000000000000     
  0.26711221000000002        9.8671499999999995E-002   0.0000000000000000     
  0.90191560000000004       0.26787448000000003        0.0000000000000000     
  0.90118569000000004       0.73039821000000005        0.0000000000000000     
  0.73122947000000005        9.8017859999999998E-002   0.0000000000000000     
   9.8084400000000002E-002  0.73212551999999997        0.0000000000000000     
  0.26957329000000002       0.90221516999999996        0.0000000000000000     
  0.39283522999999998       0.25360379000000000        0.0000000000000000     
  0.74480864000000002       0.60495284999999999        0.0000000000000000     
  0.25505132000000003       0.60593640999999998        0.0000000000000000     
  0.52159297999999998       0.40671636000000000        0.0000000000000000     
  0.40768852000000000       0.47699891000000000        0.0000000000000000     
   9.1467049999999994E-002   9.1876959999999994E-002   0.0000000000000000     
  0.90842484999999995       0.90819225000000003        0.0000000000000000     
  0.90820104999999995        9.1566729999999999E-002   0.0000000000000000     
   9.1807449999999999E-002  0.90843574000000005        0.0000000000000000     
  0.27098960000000000       0.20527094000000001        0.0000000000000000     
  0.73457293999999995       0.79835387000000002        0.0000000000000000     
  0.79817773000000003       0.25713470999999999        0.0000000000000000     
  0.20747797000000001       0.72863946000000002        0.0000000000000000     
  0.20175195000000001       0.27583914999999998        0.0000000000000000     
  0.79603889000000005       0.72159035000000005        0.0000000000000000     
  0.71761666000000002       0.19748431999999999        0.0000000000000000     
  0.28462607000000001       0.80251899999999998        0.0000000000000000     
  0.69134598999999997       0.49261972999999998        0.0000000000000000     
  0.44720578999999999       0.58582935999999997        0.0000000000000000     
  0.24242269999999999       0.37228174000000003        0.0000000000000000     
  0.38265623999999998       0.93072131999999996        0.0000000000000000     
  0.60971754000000000       0.91988369000000003        0.0000000000000000     
   7.9163609999999995E-002  0.60979116000000000        0.0000000000000000     
  0.92010649000000000       0.61081183999999999        0.0000000000000000     
  0.61954008999999999        7.1530830000000004E-002   0.0000000000000000     
  0.91882012999999996       0.38917363999999999        0.0000000000000000     
  0.39086346000000000        8.0652249999999995E-002   0.0000000000000000     
   7.9183480000000001E-002  0.38966213000000000        0.0000000000000000     
  0.59114111999999996       0.49294315000000000        0.0000000000000000     
  0.63337980999999999       0.64485914000000000        0.0000000000000000     
  0.50012352000000004       0.29676539000000002        0.0000000000000000     
  0.82552601000000003       0.92753492000000004        0.0000000000000000     
  0.92774772999999999       0.82498556999999995        0.0000000000000000     
   7.1970870000000006E-002  0.17510291000000000        0.0000000000000000     
  0.17422821999999999        7.2635640000000001E-002   0.0000000000000000     
  0.82510813000000005        7.2134840000000006E-002   0.0000000000000000     
  0.92754665000000003       0.17446275999999999        0.0000000000000000     
  0.17501022999999999       0.92789951999999998        0.0000000000000000     
   7.2464680000000004E-002  0.82554053000000005        0.0000000000000000     
  0.30731587999999999       0.50885354999999999        0.0000000000000000     
  0.59033407999999998       0.22171178999999999        0.0000000000000000     
  0.40109191999999999       0.78725542000000004        0.0000000000000000     
  0.35420917000000002       0.63754104000000000        0.0000000000000000     
  0.15983976999999999       0.56665573000000002        0.0000000000000000     
  0.84108459999999996       0.56757886999999996        0.0000000000000000     
  0.83902096000000004       0.43344338999999998        0.0000000000000000     
  0.43230028999999998       0.16004268999999999        0.0000000000000000     
  0.57536027999999995       0.83041363999999995        0.0000000000000000     
  0.15771898000000001       0.42747892999999998        0.0000000000000000     
  0.34021692999999997       0.34221559000000001        0.0000000000000000     
  0.56002271999999997       0.57501117999999996        0.0000000000000000     
  0.65344329000000001       0.78147597999999996        0.0000000000000000     
   0.0000000000000000        0.0000000000000000        0.0000000000000000     
   1.0000000000000000        0.0000000000000000        0.0000000000000000     
   1.0000000000000000        1.0000000000000000        0.0000000000000000     
   0.0000000000000000        1.0000000000000000        0.0000000000000000     
  0.11111111000000000        0.0000000000000000        0.0000000000000000     
  0.22222222000000000        0.0000000000000000        0.0000000000000000     
  0.33333332999999998        0.0000000000000000        0.0000000000000000     
  0.44444444000000000        0.0000000000000000        0.0000000000000000     
  0.55555555999999995        0.0000000000000000        0.0000000000000000     
  0.66666667000000002        0.0000000000000000        0.0000000000000000     
  0.77777777999999997        0.0000000000000000        0.0000000000000000     
  0.88888889000000004        0.0000000000000000        0.0000000000000000     
   1.0000000000000000       0.11111111000000000        0.0000000000000000     
   1.0000000000000000       0.22222222000000000        0.0000000000000000     
   1.0000000000000000       0.33333332999999998        0.0000000000000000     
   1.0000000000000000       0.44444444000000000        0.0000000000000000     
   1.0000000000000000       0.55555555999999995        0.0000000000000000     
   1.0000000000000000       0.66666667000000002        0.0000000000000000     
   1.0000000000000000       0.77777777999999997        0.0000000000000000     
   1.0000000000000000       0.88888889000000004        0.0000000000000000     
  0.88888889000000004        1.0000000000000000        0.0000000000000000     
  0.77777777999999997        1.0000000000000000        0.0000000000000000     
  0.66666667000000002        1.0000000000000000        0.0000000000000000     
  0.55555555999999995        1.0000000000000000        0.0000000000000000     
  0.44444444000000000        1.0000000000000000        0.0000000000000000     
  0.33333332999999998        1.0000000000000000        0.0000000000000000     
  0.22222222000000000        1.0000000000000000        0.0000000000000000     
  0.11111111000000000        1.0000000000000000        0.0000000000000000     
   0.0000000000000000       0.11111111000000000        0.0000000000000000     
   0.0000000000000000       0.22222222000000000        0.0000000000000000     
[...]
 CELL_DATA         354
 SCALARS C float
 LOOKUP_TABLE default
    0.87710418369452780585E+00
    0.11274413111349836925E+01
    0.67954827238013604251E+00
    0.71923726335424786882E+00
    0.97093892233837431061E+00
    0.10482802350139863723E+01
    0.11496268090705323850E+01
    0.11092831589167073680E+01
    0.11846174311858996830E+01
    0.11844248609983827336E+01
    0.11646192373066266423E+01
    0.11820865550960981682E+01
    0.11603121522266655052E+01
    0.11608464348387665943E+01
    0.11675691769886056282E+01
    0.11619607623033867405E+01
    0.11685172600100270923E+01
    0.11832906306686523656E+01
    0.11883136301048213834E+01
    0.11835843296272514635E+01
    0.11685852298521943737E+01
    0.11717361726441910541E+01
    0.11888339144482897858E+01
    0.11788912559639073141E+01
    0.11890118747951445854E+01
    0.11858977186480927912E+01
    0.11871040304257860498E+01
    0.11901891678268570196E+01
    0.11513359320824645415E+01
    0.11084646354343952179E+01
    0.96688476162560821336E+00
    0.10506637482714187293E+01
    0.88065217494418668309E+00
    0.79077099061947364600E+00
    0.69074647401403566072E+00
    0.73090634063592063718E+00
    0.67989773759382532425E+00
    0.68818474177241906187E+00
    0.73013284646609066808E+00
    0.70070979266281019360E+00
    0.74242219470568293627E+00
    0.74554358774010276445E+00
    0.76128165050557694560E+00
    0.75048077829239490111E+00
    0.75209960352897475833E+00
    0.71661232150828002574E+00
    0.68993228222849634079E+00
    0.70055288094667889087E+00
    0.68201290380072598918E+00
    0.66886389413662283854E+00
    0.68688081089759434050E+00
    0.67693190451068063762E+00
    0.91108262213028767817E+00
    0.93040474728338129484E+00
    0.99453215530310101755E+00
    0.95754947900271614181E+00
    0.99840495786719740678E+00
    0.97590693595027966367E+00
    0.93594919404577470168E+00
    0.95705195312834223653E+00
    0.89590891988095733289E+00
    0.83242875961160445186E+00
    0.73628298087462418220E+00
    0.78434473849822783365E+00
    0.70398544883820080020E+00
    0.67317567944723899487E+00
    0.68013112690614818678E+00
    0.67353308307828974044E+00
    0.11466130902715157003E+01
    0.11712923563142114691E+01
    0.11804636494748295128E+01
    0.11592356118732387582E+01
    0.11764570060841519350E+01
    0.11696221996240483421E+01
    0.11956534710402024757E+01
    0.11990207482624006818E+01
    0.12017745952862470826E+01
    0.11827695818890413548E+01
    0.11736269508218022395E+01
    0.11955271544280392515E+01
    0.11100301003050059290E+01
    0.11425683682387266504E+01
    0.12016119308000636767E+01
    0.11301127827137034121E+01
    0.11559631155518410583E+01
    0.11231323926472540631E+01
    0.10358173238207408762E+01
    0.11498503263596320245E+01
    0.11487868614206482309E+01
    0.11423424535396899948E+01
    0.10909182282496416860E+01
    0.11417464745581820118E+01
    0.11120290495938907060E+01
    0.10054291993809547634E+01
    0.98736911508719238384E+00
    0.10546473376697953483E+01
    0.11583176979957734432E+01
    0.12035030354745370751E+01
    0.11722439698416162734E+01
    0.11964083116307180354E+01
    0.11819085007071254978E+01
    0.12008887132587799940E+01
    0.11988846685861376251E+01
    0.11392861708675585675E+01
    0.11375955500977716905E+01
    0.11062471108226907823E+01
    0.11062805861126503437E+01
    0.11363104785631494842E+01
    0.11689703880062907171E+01
    0.11399962329724182553E+01
    0.99387088147227764523E+00
    0.11362850254338341394E+01
    0.10590251412283566701E+01
    0.10463701299158545410E+01
    0.11957042189633846352E+01
    0.11281306253467175971E+01
    0.11826752314092749963E+01
    0.12014331924010943631E+01
    0.12112977175434371802E+01
    0.11335791520119200548E+01
    0.11855366647246530221E+01
    0.84559347247913885237E+00
    0.93680432394106083471E+00
    0.77980871503763315999E+00
    0.95368678684789021105E+00
    0.10070498499129176828E+01
    0.78769612038695191458E+00
    0.83268050965078266312E+00
    0.11373200422992406633E+01
    0.11907088673337216100E+01
    0.10988212082126269653E+01
    0.12055753489011509227E+01
    0.12001422214344013017E+01
    0.10994296459423433809E+01
    0.11441864461379027684E+01
    0.11986796050250145829E+01
    0.11783743015940093546E+01
    0.11947478830845013054E+01
    0.11813726479845716444E+01
    0.11647811400099739032E+01
    0.11908073170113340211E+01
    0.11973737454796273827E+01
    0.74890544813678605607E+00
    0.72755683407954641062E+00
    0.68551253106012499661E+00
    0.81922075051620757424E+00
    0.80448245944054197487E+00
    0.69031635566326088327E+00
    0.69662544191459008225E+00
    0.11659201082475267874E+01
    0.11461777908471777465E+01
    0.11407105898003759847E+01
    0.11591741901158143513E+01
    0.11220126815954456490E+01
    0.11570477848032285628E+01
    0.11983802346562484331E+01
    0.11818139446985653773E+01
    0.11680245123700954135E+01
    0.11993254583781181033E+01
    0.11878481679345236355E+01
    0.11935329473786249199E+01
    0.11830775013087184711E+01
    0.11934515887152477021E+01
    0.12015799741353030416E+01
    0.12067193140823391229E+01
    0.88604408095706088666E+00
    0.98295989458470489630E+00
    0.88540207569726425696E+00
    0.97261536678919902066E+00
    0.10259310311721019371E+01
    0.11923822433573965096E+01
    0.11666318356846394622E+01
    0.11925914679954590092E+01
    0.11903994753964091124E+01
    0.11671679623214057386E+01
    0.11466543085028364501E+01
    0.11956117892052062768E+01
    0.11985089709188421203E+01
    0.11283513206939304041E+01
    0.11687402577304659701E+01
    0.11709112294781285346E+01
    0.11981931782345760507E+01
    0.11799640200990684225E+01
    0.11998453232132331170E+01
    0.11945824605030068710E+01
    0.11049938554199929541E+01
    0.11944334458390377662E+01
    0.11387379379981257266E+01
    0.11606372031778602327E+01
    0.11922788376263429022E+01
    0.11409284293918171560E+01
    0.11514175519907086098E+01
    0.11375305427924569113E+01
    0.11461473080083082188E+01
    0.11097561649382514659E+01
    0.86866345092770791414E+00
    0.10615796142000788471E+01
    0.94658359195321395418E+00
    0.91992322296854300845E+00
    0.10196254049593522772E+01
    0.85503365674146636355E+00
    0.78974184580716888515E+00
    0.86916045179231060658E+00
    0.79454824633803700085E+00
    0.92944053945526194926E+00
    0.10540203604930629133E+01
    0.11482465847005067783E+01
    0.11227613330115544521E+01
    0.11480704348818835392E+01
    0.11443251274253161132E+01
    0.11932280976619553670E+01
    0.11928313845233098345E+01
    0.12018291032688108722E+01
    0.12035496937907839143E+01
    0.11944595742129204829E+01
    0.11818908182368623727E+01
    0.12024206575203972847E+01
    0.11987384971496348740E+01
    0.11842668681397179320E+01
    0.10424327994490194538E+01
    0.10025960593185545555E+01
    0.99730048801550830184E+00
    0.11987800288953893713E+01
    0.11090164341417965144E+01
    0.11945585967689955620E+01
    0.78742851430516591638E+00
    0.82995029574284517881E+00
    0.94925539887051602062E+00
    0.93286905427895772114E+00
    0.94619392750826158967E+00
    0.10362504398572118802E+01
    0.10442264076077381052E+01
    0.11145113495712259954E+01
    0.11850793319109902413E+01
    0.12171908871648331463E+01
    0.12138079253646227862E+01
    0.12069252973084414471E+01
    0.11531166136837442959E+01
    0.11643693701864783474E+01
    0.11203137116511681093E+01
    0.11522907961921575737E+01
    0.12016915632338118769E+01
    0.11021128781620754822E+01
    0.11324735845723772343E+01
    0.11646130909145440135E+01
    0.11771174533554000785E+01
    0.91549434820683217584E+00
    0.80950893460805128932E+00
    0.76338618833738847158E+00
    0.11719479792948719332E+01
    0.10740069043481315081E+01
    0.10541044633116296581E+01
    0.12100200268385030711E+01
    0.11928670532965175433E+01
    0.11607218362368838527E+01
    0.11892017829735748169E+01
    0.12043127242139730626E+01
    0.12003919914968446125E+01
    0.10536335342778733182E+01
    0.10780382050173371589E+01
    0.87814935254668846643E+00
    0.11577346874969534074E+01
    0.11598773728512425940E+01
    0.11765242797202410951E+01
    0.83873189767730027544E+00
    0.81915388144852441243E+00
    0.70874076364931892780E+00
    0.79713640174530553395E+00
    0.73346806245753670694E+00
    0.68801571203075473360E+00
    0.11727653490408602721E+01
    0.11212528212864121269E+01
    0.11524193453675368737E+01
    0.11606306793432104030E+01
    0.11702428819504262503E+01
    0.11867231083681573089E+01
    0.12085482529495066295E+01
    0.12040825855920693765E+01
    0.10463414221345017641E+01
    0.11980171888987358741E+01
    0.11860755884187521580E+01
    0.11100529771600440299E+01
    0.11485871733813217688E+01
    0.11432874259499332670E+01
    0.10946096987805229439E+01
    0.11831950113050364592E+01
    0.11858236986497436849E+01
    0.10165087595678552468E+01
    0.10701736955430893872E+01
    0.71796956101494879832E+00
    0.74871610830165580275E+00
    0.12014215614470391547E+01
    0.12039962101819752238E+01
    0.66781695256977446906E+00
    0.67012181782843049938E+00
    0.12134570021986772481E+01
    0.10646705335698967154E+01
    0.10638378695457344492E+01
    0.11566197347153714947E+01
    0.90219763898070892694E+00
    0.12065750234749266223E+01
    0.11216032656493524211E+01
    0.96099408132778185720E+00
    0.11613575072906112684E+01
    0.12025173127094821446E+01
    0.11927895982469420844E+01
    0.11920282784012528055E+01
    0.11917510929352164162E+01
    0.90571382284378043614E+00
    0.98199295821036924892E+00
    0.11890295241838801932E+01
    0.12114020638156972609E+01
    0.11677516695221770160E+01
    0.11172760603868781004E+01
    0.11665521891494496920E+01
    0.11985765402250492251E+01
    0.10590927765044328979E+01
    0.10578564472737930213E+01
    0.86087916823115473441E+00
    0.80682615457713247054E+00
    0.11335223365549367269E+01
    0.10993212202977742376E+01
    0.67659248064167265557E+00
    0.67137372578728404804E+00
    0.74310071626044305049E+00
    0.73439550928263741536E+00
    0.10517320289608946826E+01
    0.11912253840368567381E+01
    0.12570361366097202449E+01
    0.12667258797184317576E+01
    0.12643635517739832963E+01
    0.12619146146828350563E+01
    0.12329175901449771491E+01
    0.11795132487663790855E+01
    0.12125118526010814080E+01
    0.11985148645998995320E+01
    0.11427128393615029189E+01
    0.10304770700911516368E+01
    0.87176513773160380083E+00
    0.73120841512022616282E+00
    0.67129687568917428830E+00
    0.68954929680916354773E+00
    0.70005350517234488095E+00
    0.69885214794983241404E+00
    0.67966293679547362672E+00
    0.66848434014635793599E+00
    0.68271967864903759793E+00
    0.86914219657120339591E+00
    0.90548635170747715506E+00
    0.88823721310348302538E+00
    0.83581704233179054953E+00
    0.75581873852588055129E+00
    0.69045256285814249342E+00
    0.67513630515782607766E+00
