# vtk DataFile Version 3.0
LAPLACIEN  2D
ASCII
DATASET UNSTRUCTURED_GRID
 POINTS         391  float
  0.50371505999999999       0.50367786999999997        0.0000000000000000     
  0.29013556000000001       0.29014535000000002        0.0000000000000000     
  0.70165584999999997       0.71206597999999999        0.0000000000000000     
  0.70304188999999995       0.30176619999999998        0.0000000000000000     
  0.30920671999999999       0.71149227999999998        0.0000000000000000     
  0.79044983999999996       0.49884783999999999        0.0000000000000000     
  0.49102621000000002       0.20968644000000000        0.0000000000000000     
  0.49912957000000002       0.77208717000000004        0.0000000000000000     
  0.21724072999999999       0.48989389000000000        0.0000000000000000     
  0.83255933999999998       0.83046598000000005        0.0000000000000000     
  0.16646774000000000       0.17015694000000001        0.0000000000000000     
  0.83054514999999995       0.16736480000000001        0.0000000000000000     
  0.16953130999999999       0.83265739000000005        0.0000000000000000     
  0.42166445000000002       0.36345201999999999        0.0000000000000000     
  0.64462200999999997       0.56347807999999999        0.0000000000000000     
  0.35324633999999999       0.56311191000000005        0.0000000000000000     
  0.65456411000000003       0.84856860999999995        0.0000000000000000     
  0.35141477999999998       0.15563974000000000        0.0000000000000000     
  0.15290967000000000       0.35206625000000003        0.0000000000000000     
  0.82942241000000005       0.34936866000000000        0.0000000000000000     
  0.84390527000000004       0.64441694999999999        0.0000000000000000     
  0.63699174999999997       0.14284276000000001        0.0000000000000000     
  0.15620682999999999       0.64648446999999998        0.0000000000000000     
  0.36426062999999997       0.85756310999999996        0.0000000000000000     
  0.63489340999999999       0.40519052000000000        0.0000000000000000     
  0.52518872999999999       0.65957078000000002        0.0000000000000000     
  0.32158959999999998       0.42298103999999997        0.0000000000000000     
  0.58861710000000000       0.31711036999999997        0.0000000000000000     
  0.42078418000000001       0.69497151999999995        0.0000000000000000     
  0.48608786999999998       0.89334152000000000        0.0000000000000000     
   9.7084320000000002E-002  0.50000000000000000        0.0000000000000000     
  0.90291568000000000       0.50000000000000000        0.0000000000000000     
  0.51392453000000005       0.10668648999999999        0.0000000000000000     
  0.59792566999999996       0.73122754000000001        0.0000000000000000     
  0.74510058999999995       0.41124730999999998        0.0000000000000000     
  0.73212551999999997       0.90191560000000004        0.0000000000000000     
   9.7784830000000003E-002  0.26957329000000002        0.0000000000000000     
  0.26711221000000002        9.8671499999999995E-002   0.0000000000000000     
  0.90191560000000004       0.26787448000000003        0.0000000000000000     
  0.90118569000000004       0.73039821000000005        0.0000000000000000     
  0.73122947000000005        9.8017859999999998E-002   0.0000000000000000     
   9.8084400000000002E-002  0.73212551999999997        0.0000000000000000     
  0.26957329000000002       0.90221516999999996        0.0000000000000000     
  0.39283522999999998       0.25360379000000000        0.0000000000000000     
  0.74480864000000002       0.60495284999999999        0.0000000000000000     
  0.25505132000000003       0.60593640999999998        0.0000000000000000     
  0.52159297999999998       0.40671636000000000        0.0000000000000000     
  0.40768852000000000       0.47699891000000000        0.0000000000000000     
   9.1467049999999994E-002   9.1876959999999994E-002   0.0000000000000000     
  0.90842484999999995       0.90819225000000003        0.0000000000000000     
  0.90820104999999995        9.1566729999999999E-002   0.0000000000000000     
   9.1807449999999999E-002  0.90843574000000005        0.0000000000000000     
  0.27098960000000000       0.20527094000000001        0.0000000000000000     
  0.73457293999999995       0.79835387000000002        0.0000000000000000     
  0.79817773000000003       0.25713470999999999        0.0000000000000000     
  0.20747797000000001       0.72863946000000002        0.0000000000000000     
  0.20175195000000001       0.27583914999999998        0.0000000000000000     
  0.79603889000000005       0.72159035000000005        0.0000000000000000     
  0.71761666000000002       0.19748431999999999        0.0000000000000000     
  0.28462607000000001       0.80251899999999998        0.0000000000000000     
  0.69134598999999997       0.49261972999999998        0.0000000000000000     
  0.44720578999999999       0.58582935999999997        0.0000000000000000     
  0.24242269999999999       0.37228174000000003        0.0000000000000000     
  0.38265623999999998       0.93072131999999996        0.0000000000000000     
  0.60971754000000000       0.91988369000000003        0.0000000000000000     
   7.9163609999999995E-002  0.60979116000000000        0.0000000000000000     
  0.92010649000000000       0.61081183999999999        0.0000000000000000     
  0.61954008999999999        7.1530830000000004E-002   0.0000000000000000     
  0.91882012999999996       0.38917363999999999        0.0000000000000000     
  0.39086346000000000        8.0652249999999995E-002   0.0000000000000000     
   7.9183480000000001E-002  0.38966213000000000        0.0000000000000000     
  0.59114111999999996       0.49294315000000000        0.0000000000000000     
  0.63337980999999999       0.64485914000000000        0.0000000000000000     
  0.50012352000000004       0.29676539000000002        0.0000000000000000     
  0.82552601000000003       0.92753492000000004        0.0000000000000000     
  0.92774772999999999       0.82498556999999995        0.0000000000000000     
   7.1970870000000006E-002  0.17510291000000000        0.0000000000000000     
  0.17422821999999999        7.2635640000000001E-002   0.0000000000000000     
  0.82510813000000005        7.2134840000000006E-002   0.0000000000000000     
  0.92754665000000003       0.17446275999999999        0.0000000000000000     
  0.17501022999999999       0.92789951999999998        0.0000000000000000     
   7.2464680000000004E-002  0.82554053000000005        0.0000000000000000     
  0.30731587999999999       0.50885354999999999        0.0000000000000000     
  0.59033407999999998       0.22171178999999999        0.0000000000000000     
  0.40109191999999999       0.78725542000000004        0.0000000000000000     
  0.35420917000000002       0.63754104000000000        0.0000000000000000     
  0.15983976999999999       0.56665573000000002        0.0000000000000000     
  0.84108459999999996       0.56757886999999996        0.0000000000000000     
  0.83902096000000004       0.43344338999999998        0.0000000000000000     
  0.43230028999999998       0.16004268999999999        0.0000000000000000     
  0.57536027999999995       0.83041363999999995        0.0000000000000000     
  0.15771898000000001       0.42747892999999998        0.0000000000000000     
  0.34021692999999997       0.34221559000000001        0.0000000000000000     
  0.56002271999999997       0.57501117999999996        0.0000000000000000     
  0.65344329000000001       0.78147597999999996        0.0000000000000000     
   0.0000000000000000        0.0000000000000000        0.0000000000000000     
   1.0000000000000000        0.0000000000000000        0.0000000000000000     
   1.0000000000000000        1.0000000000000000        0.0000000000000000     
   0.0000000000000000        1.0000000000000000        0.0000000000000000     
  0.11111111000000000        0.0000000000000000        0.0000000000000000     
  0.22222222000000000        0.0000000000000000        0.0000000000000000     
  0.33333332999999998        0.0000000000000000        0.0000000000000000     
  0.44444444000000000        0.0000000000000000        0.0000000000000000     
  0.55555555999999995        0.0000000000000000        0.0000000000000000     
  0.66666667000000002        0.0000000000000000        0.0000000000000000     
  0.77777777999999997        0.0000000000000000        0.0000000000000000     
  0.88888889000000004        0.0000000000000000        0.0000000000000000     
   1.0000000000000000       0.11111111000000000        0.0000000000000000     
   1.0000000000000000       0.22222222000000000        0.0000000000000000     
   1.0000000000000000       0.33333332999999998        0.0000000000000000     
   1.0000000000000000       0.44444444000000000        0.0000000000000000     
   1.0000000000000000       0.55555555999999995        0.0000000000000000     
   1.0000000000000000       0.66666667000000002        0.0000000000000000     
   1.0000000000000000       0.77777777999999997        0.0000000000000000     
   1.0000000000000000       0.88888889000000004        0.0000000000000000     
  0.88888889000000004        1.0000000000000000        0.0000000000000000     
  0.77777777999999997        1.0000000000000000        0.0000000000000000     
  0.66666667000000002        1.0000000000000000        0.0000000000000000     
  0.55555555999999995        1.0000000000000000        0.0000000000000000     
  0.44444444000000000        1.0000000000000000        0.0000000000000000     
  0.33333332999999998        1.0000000000000000        0.0000000000000000     
  0.22222222000000000        1.0000000000000000        0.0000000000000000     
  0.11111111000000000        1.0000000000000000        0.0000000000000000     
   0.0000000000000000       0.11111111000000000        0.0000000000000000     
   0.0000000000000000       0.22222222000000000        0.0000000000000000     
[...]
 CELL_DATA         354
 SCALARS C float
 LOOKUP_TABLE default
    0.87354091350713958253E+00
    0.11268146704971753191E+01
    0.67518750928068382855E+00
    0.71579159838305483898E+00
    0.96803304053613159486E+00
    0.10467621455393767427E+01
    0.11478946648591947799E+01
    0.11080052065421734930E+01
    0.11833685915336080718E+01
    0.11835398765816584898E+01
    0.11639423534128110482E+01
    0.11813659818923945011E+01
    0.11598576762482857294E+01
    0.11602885083057645765E+01
    0.11669551039673851101E+01
    0.11613125616009207786E+01
    0.11676339355662337383E+01
    0.11823743197177327691E+01
    0.11866034143550518998E+01
    0.11819455282604378610E+01
    0.11675898981331260806E+01
    0.11704447273527713858E+01
    0.11877613017242034665E+01
    0.11780575416045568904E+01
    0.11879925567286533372E+01
    0.11848488029287131962E+01
    0.11859490738041515989E+01
    0.11887382679585569711E+01
    0.11507094975144744886E+01
    0.11073575417712835378E+01
    0.96415804610130850794E+00
    0.10490353995998435988E+01
    0.87710392965527705922E+00
    0.78660622517975109513E+00
    0.68619991320325035566E+00
    0.72647810395498324532E+00
    0.67536740314654886141E+00
    0.68367510600301040213E+00
    0.72572698425992931970E+00
    0.69616764680588238967E+00
    0.73814344968174339101E+00
    0.74125332749582695246E+00
    0.75708417290287033374E+00
    0.74619492232841488910E+00
    0.74779735011206915907E+00
    0.71211657073773371174E+00
    0.68544484108464054373E+00
    0.69608747749647303937E+00
    0.67756557738535994062E+00
    0.66444824337278518556E+00
    0.68299835248506490792E+00
    0.67289133981079074509E+00
    0.90770768349404629127E+00
    0.92714410138189784494E+00
    0.99181740375983917790E+00
    0.95453483579031461748E+00
    0.99597969823221454977E+00
    0.97327536490378885325E+00
    0.93285168304014487450E+00
    0.95410530870830989603E+00
    0.89251558001957531641E+00
    0.82859081285990143773E+00
    0.73195660769544712565E+00
    0.78025190609540784337E+00
    0.69950925834612942555E+00
    0.66863230751975244459E+00
    0.67626896545816606032E+00
    0.66931627846955865646E+00
    0.11463664481376318882E+01
    0.11708751457328858692E+01
    0.11797601200894278772E+01
    0.11590828966722164228E+01
    0.11757631912983703693E+01
    0.11689980422282615358E+01
    0.11948338793263266755E+01
    0.11982951404299089226E+01
    0.12011688825934969671E+01
    0.11822350191252195550E+01
    0.11715158844664905757E+01
    0.11938274650225577656E+01
    0.11091667253062245102E+01
    0.11408905515595839653E+01
    0.11997070218795551355E+01
    0.11291223604653610746E+01
    0.11555969053223957843E+01
    0.11227735972448489310E+01
    0.10373913048697114281E+01
    0.11491918203066069371E+01
    0.11485503207713598783E+01
    0.11415560545664897862E+01
    0.10911810263189596348E+01
    0.11400722631035158372E+01
    0.11104203040782609779E+01
    0.10033683824404404650E+01
    0.98459383392542720870E+00
    0.10531616094080227253E+01
    0.11555599778020582136E+01
    0.12026502145682445022E+01
    0.11715661884620554023E+01
    0.11956989538027951170E+01
    0.11812426391191710451E+01
    0.12002579768661776338E+01
    0.11981345484915668642E+01
    0.11388728146079376558E+01
    0.11372291059320382978E+01
    0.11053832478722891430E+01
    0.11052571603899334907E+01
    0.11361165991394162056E+01
    0.11665862428050766120E+01
    0.11384738381825947329E+01
    0.99095819608258750577E+00
    0.11347655359005837106E+01
    0.10574403351755650160E+01
    0.10448213980900504794E+01
    0.11948024964464170061E+01
    0.11268241071893807526E+01
    0.11803555849492686214E+01
    0.11998308024710699904E+01
    0.12095755652052111451E+01
    0.11328930179099439002E+01
    0.11829361567272851374E+01
    0.84180212842027657416E+00
    0.93371646200883340327E+00
    0.77557054630202837409E+00
    0.95062053099492271890E+00
    0.10044410182285683497E+01
    0.78361266311947930241E+00
    0.82881420677283235143E+00
    0.11362382824588894703E+01
    0.11887271573000910418E+01
    0.10975989470746545518E+01
    0.12038378203123620835E+01
    0.11980097869601111782E+01
    0.10989718114101789670E+01
    0.11425620878989060092E+01
    0.11980528922393176572E+01
    0.11778398439524824237E+01
    0.11938755579172095622E+01
    0.11807663444390179563E+01
    0.11642828497706931845E+01
    0.11901585628171482689E+01
    0.11967594151232017197E+01
    0.74457688832964274983E+00
    0.72313981589056042232E+00
    0.68100378041073494906E+00
    0.81520038391933069555E+00
    0.80038821993926556608E+00
    0.68581420018419492202E+00
    0.69212333236551537574E+00
    0.11654429217802373397E+01
    0.11461707336170070537E+01
    0.11398981868120947603E+01
    0.11589143867181752601E+01
    0.11211343059027705227E+01
    0.11567776402527611967E+01
    0.11977321146069686009E+01
    0.11812075389088214639E+01
    0.11673804003454539835E+01
    0.11987028456410779853E+01
    0.11870593675995979588E+01
    0.11918853238036910547E+01
    0.11823823788354723696E+01
    0.11927472638721936526E+01
    0.12009475494124073336E+01
    0.12049195393802110132E+01
    0.88234875785057109709E+00
    0.97994400165843675854E+00
    0.88162126855939504377E+00
    0.96968676267367859278E+00
    0.10234466257759056163E+01
    0.11917370483130500514E+01
    0.11661200339339827803E+01
    0.11918610153458983891E+01
    0.11899025452806633041E+01
    0.11667861736821969476E+01
    0.11450750555112294560E+01
    0.11935014992601344908E+01
    0.11966802912224097089E+01
    0.11270227232363065895E+01
    0.11667010026447415250E+01
    0.11705435941264878963E+01
    0.11976941203731330532E+01
    0.11794946337728302588E+01
    0.11992531428884898315E+01
    0.11938315485062862553E+01
    0.11036479065897086826E+01
    0.11925810466072048754E+01
    0.11371577381497350867E+01
    0.11587119475970957261E+01
    0.11903199387904361828E+01
    0.11409796761211556948E+01
    0.11511301696536888617E+01
    0.11376261762993389315E+01
    0.11458535427225458037E+01
    0.11096047835391733560E+01
    0.86481209511539613999E+00
    0.10600644648055634889E+01
    0.94351616354376210971E+00
    0.91638283088790850606E+00
    0.10176226197470041868E+01
    0.85143965010005151495E+00
    0.78547055458031733721E+00
    0.86546212053611504267E+00
    0.79041145485272445992E+00
    0.92632502710395303591E+00
    0.10543621903998061651E+01
    0.11475044652261421341E+01
    0.11222131328236748526E+01
    0.11477994317049240447E+01
    0.11436310128535711605E+01
    0.11913701911262786215E+01
    0.11909499727861856400E+01
    0.12009826655236568449E+01
    0.12027185960604307446E+01
    0.11938473385194079412E+01
    0.11813856926810326620E+01
    0.12017864878127333395E+01
    0.11982040890151166579E+01
    0.11837544467466505349E+01
    0.10435669115668557705E+01
    0.10049078864444274117E+01
    0.99977443575528168740E+00
    0.11971918610731129284E+01
    0.11086126435387746447E+01
    0.11919738457830171274E+01
    0.78329040924838455595E+00
    0.82602359642743738988E+00
    0.94616419949873309392E+00
    0.92962154922257478340E+00
    0.94299210232827990197E+00
    0.10342639763689327470E+01
    0.10428732918185441569E+01
    0.11124746559196303508E+01
    0.11834076598365552702E+01
    0.12160316701427742458E+01
    0.12123275344804409492E+01
    0.12062284645782355152E+01
    0.11527649638726011894E+01
    0.11637208870241582126E+01
    0.11197025377783251798E+01
    0.11521033436594336763E+01
    0.11997466217869641181E+01
    0.11012120409055063952E+01
    0.11311410414854909945E+01
    0.11643562150951007883E+01
    0.11763592638530748768E+01
    0.91206895593543768630E+00
    0.80539321996588952857E+00
    0.75913015605341915837E+00
    0.11695612598995062115E+01
    0.10726926624905628316E+01
    0.10530365996347421653E+01
    0.12089164127797740189E+01
    0.11921145637800836248E+01
    0.11588146919912158950E+01
    0.11884449668096226382E+01
    0.12036802174151379763E+01
    0.11996268212619565219E+01
    0.10518279266969192687E+01
    0.10761522404552539278E+01
    0.87458806179169301664E+00
    0.11573994031450276498E+01
    0.11592722199210718781E+01
    0.11757550293489820170E+01
    0.83479919317442274895E+00
    0.81507994501382663444E+00
    0.70426757875292467226E+00
    0.79298269934208365228E+00
    0.72898240706144046275E+00
    0.68352920040358622344E+00
    0.11718907591131979551E+01
    0.11207869889230870353E+01
    0.11522756557293598600E+01
    0.11603796238535095675E+01
    0.11682772117639581566E+01
    0.11858878901805554040E+01
    0.12078021835146648399E+01
    0.12030139623521067804E+01
    0.10447420490703425155E+01
    0.11962370851840988806E+01
    0.11834365422314025995E+01
    0.11087725633219707166E+01
    0.11481919121327901490E+01
    0.11427538396174146129E+01
    0.10947603129150380585E+01
    0.11825592915591052190E+01
    0.11851518566965073553E+01
    0.10141131556067428665E+01
    0.10685541454915525872E+01
    0.71345328699123145011E+00
    0.74429264391663929601E+00
    0.12000421077325573727E+01
    0.12025419554912855080E+01
    0.66352114490923974621E+00
    0.66572608167767144405E+00
    0.12123048020078219800E+01
    0.10629503712758281431E+01
    0.10621343602329116340E+01
    0.11564083653397494444E+01
    0.89866004282794142988E+00
    0.12054798466499812015E+01
    0.11206441428132163374E+01
    0.95810388406946200845E+00
    0.11611538699318293411E+01
    0.12010146092343572111E+01
    0.11920842125307609116E+01
    0.11900359766024219965E+01
    0.11910347495126336614E+01
    0.90216155521545982054E+00
    0.97898036758855533357E+00
    0.11868455614215080995E+01
    0.12107534523771468216E+01
    0.11672415923570831353E+01
    0.11157724363767760334E+01
    0.11658645019239026741E+01
    0.11979141753825819361E+01
    0.10598442925467992382E+01
    0.10559764267072466737E+01
    0.85714293484033088344E+00
    0.80288021691786981560E+00
    0.11317615208975155827E+01
    0.10982118717454885104E+01
    0.67230274188386807133E+00
    0.66714357308049598849E+00
    0.73997449399614423360E+00
    0.73134028277222995484E+00
    0.10501346313314741110E+01
    0.11898873196736778901E+01
    0.12568622165463843032E+01
    0.12670619757962846563E+01
    0.12647996562804093568E+01
    0.12619600760528979499E+01
    0.12320074806342131701E+01
    0.11784123844854283991E+01
    0.12113224154237327568E+01
    0.11973153056743539580E+01
    0.11415716489881304607E+01
    0.10286142933617097306E+01
    0.86823190665652116849E+00
    0.72681738289946429266E+00
    0.66681813659393451843E+00
    0.68504909548047687728E+00
    0.69555739315291975622E+00
    0.69437121794397338448E+00
    0.67514149936725420531E+00
    0.66408256921648634030E+00
    0.67872180143044880118E+00
    0.86557245845098107484E+00
    0.90218907383743640604E+00
    0.88480603348922348683E+00
    0.83204656239795149464E+00
    0.75156418340074249151E+00
    0.68598221729800756830E+00
    0.67093553979770692575E+00
