# vtk DataFile Version 3.0
LAPLACIEN  2D
ASCII
DATASET UNSTRUCTURED_GRID
 POINTS         391  float
  0.50371505999999999       0.50367786999999997        0.0000000000000000     
  0.29013556000000001       0.29014535000000002        0.0000000000000000     
  0.70165584999999997       0.71206597999999999        0.0000000000000000     
  0.70304188999999995       0.30176619999999998        0.0000000000000000     
  0.30920671999999999       0.71149227999999998        0.0000000000000000     
  0.79044983999999996       0.49884783999999999        0.0000000000000000     
  0.49102621000000002       0.20968644000000000        0.0000000000000000     
  0.49912957000000002       0.77208717000000004        0.0000000000000000     
  0.21724072999999999       0.48989389000000000        0.0000000000000000     
  0.83255933999999998       0.83046598000000005        0.0000000000000000     
  0.16646774000000000       0.17015694000000001        0.0000000000000000     
  0.83054514999999995       0.16736480000000001        0.0000000000000000     
  0.16953130999999999       0.83265739000000005        0.0000000000000000     
  0.42166445000000002       0.36345201999999999        0.0000000000000000     
  0.64462200999999997       0.56347807999999999        0.0000000000000000     
  0.35324633999999999       0.56311191000000005        0.0000000000000000     
  0.65456411000000003       0.84856860999999995        0.0000000000000000     
  0.35141477999999998       0.15563974000000000        0.0000000000000000     
  0.15290967000000000       0.35206625000000003        0.0000000000000000     
  0.82942241000000005       0.34936866000000000        0.0000000000000000     
  0.84390527000000004       0.64441694999999999        0.0000000000000000     
  0.63699174999999997       0.14284276000000001        0.0000000000000000     
  0.15620682999999999       0.64648446999999998        0.0000000000000000     
  0.36426062999999997       0.85756310999999996        0.0000000000000000     
  0.63489340999999999       0.40519052000000000        0.0000000000000000     
  0.52518872999999999       0.65957078000000002        0.0000000000000000     
  0.32158959999999998       0.42298103999999997        0.0000000000000000     
  0.58861710000000000       0.31711036999999997        0.0000000000000000     
  0.42078418000000001       0.69497151999999995        0.0000000000000000     
  0.48608786999999998       0.89334152000000000        0.0000000000000000     
   9.7084320000000002E-002  0.50000000000000000        0.0000000000000000     
  0.90291568000000000       0.50000000000000000        0.0000000000000000     
  0.51392453000000005       0.10668648999999999        0.0000000000000000     
  0.59792566999999996       0.73122754000000001        0.0000000000000000     
  0.74510058999999995       0.41124730999999998        0.0000000000000000     
  0.73212551999999997       0.90191560000000004        0.0000000000000000     
   9.7784830000000003E-002  0.26957329000000002        0.0000000000000000     
  0.26711221000000002        9.8671499999999995E-002   0.0000000000000000     
  0.90191560000000004       0.26787448000000003        0.0000000000000000     
  0.90118569000000004       0.73039821000000005        0.0000000000000000     
  0.73122947000000005        9.8017859999999998E-002   0.0000000000000000     
   9.8084400000000002E-002  0.73212551999999997        0.0000000000000000     
  0.26957329000000002       0.90221516999999996        0.0000000000000000     
  0.39283522999999998       0.25360379000000000        0.0000000000000000     
  0.74480864000000002       0.60495284999999999        0.0000000000000000     
  0.25505132000000003       0.60593640999999998        0.0000000000000000     
  0.52159297999999998       0.40671636000000000        0.0000000000000000     
  0.40768852000000000       0.47699891000000000        0.0000000000000000     
   9.1467049999999994E-002   9.1876959999999994E-002   0.0000000000000000     
  0.90842484999999995       0.90819225000000003        0.0000000000000000     
  0.90820104999999995        9.1566729999999999E-002   0.0000000000000000     
   9.1807449999999999E-002  0.90843574000000005        0.0000000000000000     
  0.27098960000000000       0.20527094000000001        0.0000000000000000     
  0.73457293999999995       0.79835387000000002        0.0000000000000000     
  0.79817773000000003       0.25713470999999999        0.0000000000000000     
  0.20747797000000001       0.72863946000000002        0.0000000000000000     
  0.20175195000000001       0.27583914999999998        0.0000000000000000     
  0.79603889000000005       0.72159035000000005        0.0000000000000000     
  0.71761666000000002       0.19748431999999999        0.0000000000000000     
  0.28462607000000001       0.80251899999999998        0.0000000000000000     
  0.69134598999999997       0.49261972999999998        0.0000000000000000     
  0.44720578999999999       0.58582935999999997        0.0000000000000000     
  0.24242269999999999       0.37228174000000003        0.0000000000000000     
  0.38265623999999998       0.93072131999999996        0.0000000000000000     
  0.60971754000000000       0.91988369000000003        0.0000000000000000     
   7.9163609999999995E-002  0.60979116000000000        0.0000000000000000     
  0.92010649000000000       0.61081183999999999        0.0000000000000000     
  0.61954008999999999        7.1530830000000004E-002   0.0000000000000000     
  0.91882012999999996       0.38917363999999999        0.0000000000000000     
  0.39086346000000000        8.0652249999999995E-002   0.0000000000000000     
   7.9183480000000001E-002  0.38966213000000000        0.0000000000000000     
  0.59114111999999996       0.49294315000000000        0.0000000000000000     
  0.63337980999999999       0.64485914000000000        0.0000000000000000     
  0.50012352000000004       0.29676539000000002        0.0000000000000000     
  0.82552601000000003       0.92753492000000004        0.0000000000000000     
  0.92774772999999999       0.82498556999999995        0.0000000000000000     
   7.1970870000000006E-002  0.17510291000000000        0.0000000000000000     
  0.17422821999999999        7.2635640000000001E-002   0.0000000000000000     
  0.82510813000000005        7.2134840000000006E-002   0.0000000000000000     
  0.92754665000000003       0.17446275999999999        0.0000000000000000     
  0.17501022999999999       0.92789951999999998        0.0000000000000000     
   7.2464680000000004E-002  0.82554053000000005        0.0000000000000000     
  0.30731587999999999       0.50885354999999999        0.0000000000000000     
  0.59033407999999998       0.22171178999999999        0.0000000000000000     
  0.40109191999999999       0.78725542000000004        0.0000000000000000     
  0.35420917000000002       0.63754104000000000        0.0000000000000000     
  0.15983976999999999       0.56665573000000002        0.0000000000000000     
  0.84108459999999996       0.56757886999999996        0.0000000000000000     
  0.83902096000000004       0.43344338999999998        0.0000000000000000     
  0.43230028999999998       0.16004268999999999        0.0000000000000000     
  0.57536027999999995       0.83041363999999995        0.0000000000000000     
  0.15771898000000001       0.42747892999999998        0.0000000000000000     
  0.34021692999999997       0.34221559000000001        0.0000000000000000     
  0.56002271999999997       0.57501117999999996        0.0000000000000000     
  0.65344329000000001       0.78147597999999996        0.0000000000000000     
   0.0000000000000000        0.0000000000000000        0.0000000000000000     
   1.0000000000000000        0.0000000000000000        0.0000000000000000     
   1.0000000000000000        1.0000000000000000        0.0000000000000000     
   0.0000000000000000        1.0000000000000000        0.0000000000000000     
  0.11111111000000000        0.0000000000000000        0.0000000000000000     
  0.22222222000000000        0.0000000000000000        0.0000000000000000     
  0.33333332999999998        0.0000000000000000        0.0000000000000000     
  0.44444444000000000        0.0000000000000000        0.0000000000000000     
  0.55555555999999995        0.0000000000000000        0.0000000000000000     
  0.66666667000000002        0.0000000000000000        0.0000000000000000     
  0.77777777999999997        0.0000000000000000        0.0000000000000000     
  0.88888889000000004        0.0000000000000000        0.0000000000000000     
   1.0000000000000000       0.11111111000000000        0.0000000000000000     
   1.0000000000000000       0.22222222000000000        0.0000000000000000     
   1.0000000000000000       0.33333332999999998        0.0000000000000000     
   1.0000000000000000       0.44444444000000000        0.0000000000000000     
   1.0000000000000000       0.55555555999999995        0.0000000000000000     
   1.0000000000000000       0.66666667000000002        0.0000000000000000     
   1.0000000000000000       0.77777777999999997        0.0000000000000000     
   1.0000000000000000       0.88888889000000004        0.0000000000000000     
  0.88888889000000004        1.0000000000000000        0.0000000000000000     
  0.77777777999999997        1.0000000000000000        0.0000000000000000     
  0.66666667000000002        1.0000000000000000        0.0000000000000000     
  0.55555555999999995        1.0000000000000000        0.0000000000000000     
  0.44444444000000000        1.0000000000000000        0.0000000000000000     
  0.33333332999999998        1.0000000000000000        0.0000000000000000     
  0.22222222000000000        1.0000000000000000        0.0000000000000000     
  0.11111111000000000        1.0000000000000000        0.0000000000000000     
   0.0000000000000000       0.11111111000000000        0.0000000000000000     
   0.0000000000000000       0.22222222000000000        0.0000000000000000     
[...]
 CELL_DATA         354
 SCALARS C float
 LOOKUP_TABLE default
    0.74260555275524198215E+00
    0.11472341326792023786E+01
    0.51939335453610524507E+00
    0.59886270698879617846E+00
    0.85995602463524800640E+00
    0.97493568668235308650E+00
    0.12363320159134905118E+01
    0.11079741440568178223E+01
    0.13430408485560625387E+01
    0.14129501674998308225E+01
    0.14770914400980494907E+01
    0.14632942949036285007E+01
    0.14867684059124166573E+01
    0.14906458166627034601E+01
    0.14830618153215542332E+01
    0.14874795430074969627E+01
    0.14545750628696201279E+01
    0.14091382527701672434E+01
    0.12603974269181508205E+01
    0.13339705850346763594E+01
    0.12176049775303563472E+01
    0.12549155567191001559E+01
    0.13382829877320125966E+01
    0.12993201652346697550E+01
    0.13476255839982964613E+01
    0.13275116267970346051E+01
    0.12580765168007155275E+01
    0.12962093636020699527E+01
    0.11854662939584252879E+01
    0.10803950531773338639E+01
    0.85788706278790394233E+00
    0.97267655794344387576E+00
    0.74687156840605006813E+00
    0.63493150875551751522E+00
    0.52211046141477956972E+00
    0.56622253048115200880E+00
    0.51322057682120569844E+00
    0.52082520133261200890E+00
    0.56552102477783372514E+00
    0.53175580833999458452E+00
    0.58022582262463173741E+00
    0.58342937047143328400E+00
    0.60220730311068071394E+00
    0.58867475312584138791E+00
    0.59081562478416604911E+00
    0.54849497819274128929E+00
    0.52192150608375009746E+00
    0.53283667289363534358E+00
    0.51711815599436139479E+00
    0.50782069203041246830E+00
    0.54727742617092312027E+00
    0.52843715669984880901E+00
    0.78362996861687861383E+00
    0.80698793963738091328E+00
    0.88966365146280224074E+00
    0.84143089328094311519E+00
    0.89818533907540265560E+00
    0.86864651288058869483E+00
    0.81623777522686491448E+00
    0.84283612580142097670E+00
    0.76648911023893828709E+00
    0.68659388958095846078E+00
    0.57237373889890152956E+00
    0.62944971843024943858E+00
    0.53721522538428223559E+00
    0.50595013572854985462E+00
    0.53691460059516482595E+00
    0.51795802648327293749E+00
    0.14362250020795597205E+01
    0.14890197031327709887E+01
    0.14862685731875129314E+01
    0.14735969575761695971E+01
    0.14936139610494456598E+01
    0.14870446084315256385E+01
    0.14674067458384236762E+01
    0.14246019658975590527E+01
    0.14525190802155114600E+01
    0.14914363426398364876E+01
    0.12189037625606033988E+01
    0.13100634812864377921E+01
    0.10741475426824180772E+01
    0.11585535095063210775E+01
    0.13179163900048400659E+01
    0.11212660108013152716E+01
    0.14457194671499360439E+01
    0.13227057124256194065E+01
    0.11987398329087752824E+01
    0.14153379323210679708E+01
    0.14367356389105170322E+01
    0.13842425704818570598E+01
    0.12651738748386081035E+01
    0.11264977604585806326E+01
    0.10888508074485543364E+01
    0.91829135403687112138E+00
    0.88525599744493099763E+00
    0.98648384705149605445E+00
    0.11633968315991984888E+01
    0.14235576829907534702E+01
    0.14889168191857917734E+01
    0.14543016053976749458E+01
    0.14908331332245137180E+01
    0.14215005008310546142E+01
    0.14804305437694424974E+01
    0.14111846717599534351E+01
    0.14052212882458752219E+01
    0.12981121261019408220E+01
    0.12987385711838523861E+01
    0.14289167295000413382E+01
    0.12289815291354497795E+01
    0.11539063034989689438E+01
    0.89090943435799552219E+00
    0.11437048857585765393E+01
    0.99887653211264471054E+00
    0.98209064689836078621E+00
    0.13960662739194511506E+01
    0.11025923669163875118E+01
    0.12238841631007366662E+01
    0.13501576467944265136E+01
    0.13500081914755450718E+01
    0.11284329923906615267E+01
    0.12221928280747620388E+01
    0.70354847697178679589E+00
    0.81977044453221381559E+00
    0.62320335161980122685E+00
    0.84058763126650171138E+00
    0.91071721307479902574E+00
    0.63406859849795349504E+00
    0.68782804274052289362E+00
    0.11354407117675078265E+01
    0.12897660612672978697E+01
    0.10503270957817936182E+01
    0.13397881815076768675E+01
    0.12784050639620720968E+01
    0.10544745625612819140E+01
    0.11572032399509721845E+01
    0.14704030659342008924E+01
    0.14931781524877734135E+01
    0.14137650006027659977E+01
    0.14921592665458014437E+01
    0.14795994804461058969E+01
    0.14598630015946660876E+01
    0.14292234085041446434E+01
    0.58647082076606427137E+00
    0.56167805202239118323E+00
    0.51889293907457534338E+00
    0.67090629628775511062E+00
    0.65260287855012477642E+00
    0.52221381096782359954E+00
    0.52825384399236408051E+00
    0.14797465176297990297E+01
    0.14418760978930338368E+01
    0.13889522970591166029E+01
    0.14697225891881524618E+01
    0.13489366431970695182E+01
    0.14766605234490040033E+01
    0.14630597569309127248E+01
    0.14935061366136490602E+01
    0.14893715942973040356E+01
    0.14586812280917444973E+01
    0.14918759600060296222E+01
    0.13050850955558375155E+01
    0.14620051945012417782E+01
    0.14350366889809302862E+01
    0.14089568634931619595E+01
    0.13456814665795264752E+01
    0.75248829492454283319E+00
    0.87742881013353124509E+00
    0.75034888129601329254E+00
    0.86618024764284318184E+00
    0.93618396067391718152E+00
    0.14440563646950519416E+01
    0.14881579626767917901E+01
    0.14740375469287785304E+01
    0.14868444646061393932E+01
    0.14910472625108801559E+01
    0.11421827165812179494E+01
    0.12770905358124293727E+01
    0.13110926214168718840E+01
    0.11002011950576733312E+01
    0.12007403950502011369E+01
    0.14838821948046692079E+01
    0.14788141296404420100E+01
    0.14906825642120962172E+01
    0.14629905117196615461E+01
    0.14903011334505320562E+01
    0.10563979757382218061E+01
    0.12996860678092820862E+01
    0.11491334980401737287E+01
    0.11591426014811352374E+01
    0.12826477951998385141E+01
    0.14431731133550964596E+01
    0.14718218332985431029E+01
    0.14274721020896601331E+01
    0.14712400626355086608E+01
    0.13577887988056598356E+01
    0.73021281899691847794E+00
    0.99311108172937245797E+00
    0.83224050416632122662E+00
    0.79429476577998436859E+00
    0.93471758940599181109E+00
    0.71687560015625928500E+00
    0.63303631414849270698E+00
    0.73183406451755639299E+00
    0.63982461518350386420E+00
    0.81047568955135673718E+00
    0.12142076475180720863E+01
    0.14089759706197813038E+01
    0.13227932911184017151E+01
    0.14304430293912226979E+01
    0.14066497721559039213E+01
    0.13038323019008932757E+01
    0.12911191502626693239E+01
    0.14173575930761486141E+01
    0.13931417655580260462E+01
    0.14433970901852040125E+01
    0.14919659305187356058E+01
    0.14497659012054560090E+01
    0.14503503130100852125E+01
    0.14919502931212096364E+01
    0.12047321775979851211E+01
    0.11439231711497444000E+01
    0.11376226625610161847E+01
    0.13493502249939908211E+01
    0.10809325519250616576E+01
    0.12570803472456604233E+01
    0.63193309692671317812E+00
    0.68328721691431837382E+00
    0.83393538438995240547E+00
    0.81340788114906692474E+00
    0.82842956342753870658E+00
    0.95221929669988236711E+00
    0.97628459316665405776E+00
    0.10698273557778050780E+01
    0.12322123199204095823E+01
    0.13736277823817415467E+01
    0.13494262095203224394E+01
    0.14265503431683697055E+01
    0.14859071140283102164E+01
    0.14886928161157371164E+01
    0.13682894805932532822E+01
    0.14741784888371378681E+01
    0.13126741326138819943E+01
    0.10593610178790453524E+01
    0.11171024319346705145E+01
    0.14775935048122961213E+01
    0.14891764747356861509E+01
    0.79136252311755495015E+00
    0.65730034032042317094E+00
    0.60378371067690062013E+00
    0.12069114614216389647E+01
    0.10113368505696636035E+01
    0.98995715894562841264E+00
    0.14046436179889807416E+01
    0.14306373450053082585E+01
    0.12277120787608808428E+01
    0.14832508475380232760E+01
    0.14258285736119258313E+01
    0.14060921607359391228E+01
    0.98338881940957900696E+00
    0.10082422992384267868E+01
    0.74470666183935185778E+00
    0.14760961834880581556E+01
    0.14954037235343478063E+01
    0.14696418981222696409E+01
    0.69440756322824692681E+00
    0.66938965582557408140E+00
    0.54166621770331169206E+00
    0.64360643423422569942E+00
    0.56702721797494870515E+00
    0.52013035719490197106E+00
    0.14780592316340421810E+01
    0.13642702668817918710E+01
    0.14681534648585612413E+01
    0.14844377910449231273E+01
    0.12494110026144504833E+01
    0.14710919936115083306E+01
    0.14079379796214914755E+01
    0.13840246727007068372E+01
    0.97456406061055456114E+00
    0.13074272014302286138E+01
    0.12273093435035060672E+01
    0.10865657078901049815E+01
    0.14392056141172304695E+01
    0.14079211225390513285E+01
    0.12738518954125812588E+01
    0.14833781857890568912E+01
    0.14660114957677745640E+01
    0.92054546857582197905E+00
    0.10097561425458314588E+01
    0.55048015634066949087E+00
    0.58543447430772643791E+00
    0.13799822891531681179E+01
    0.13452471680324429304E+01
    0.50681914661010729617E+00
    0.50649419824494479325E+00
    0.13958667474443857692E+01
    0.10037990937595608898E+01
    0.99483500622153775428E+00
    0.14645725087556771271E+01
    0.77311540377741150287E+00
    0.13809251505096264978E+01
    0.13402689273400056891E+01
    0.85079979502605818098E+00
    0.14747093984702521752E+01
    0.13684833660775677089E+01
    0.14771997394357541111E+01
    0.12950564380810070109E+01
    0.14700998716484834361E+01
    0.77766367011788783969E+00
    0.87459627657270622159E+00
    0.12502789166557515266E+01
    0.14478395854611392224E+01
    0.14895720676080579370E+01
    0.10788740439411561578E+01
    0.14889301877514962147E+01
    0.14554576157449432561E+01
    0.12017241135521241624E+01
    0.98308670625767158313E+00
    0.72147875151776796887E+00
    0.65560241848578892920E+00
    0.11036614970243263656E+01
    0.10631887400830504209E+01
    0.51883394073082567122E+00
    0.51701110099375302553E+00
    0.63761088997903281328E+00
    0.62586839137693761614E+00
    0.97752054091461193508E+00
    0.12293691553471624012E+01
    0.13941796059633155824E+01
    0.14661953521144948098E+01
    0.14743438450200323508E+01
    0.14361564695416877413E+01
    0.13138548557006095585E+01
    0.11913818565934710669E+01
    0.12527553373376263401E+01
    0.12251813124169950164E+01
    0.11232277720493615281E+01
    0.94252148399472757134E+00
    0.73568316015461787671E+00
    0.56729085193885564475E+00
    0.50486769833675748664E+00
    0.52022696232157494833E+00
    0.53044303050828656154E+00
    0.52970309087396105774E+00
    0.51053858007843633260E+00
    0.50572362578371587993E+00
    0.53970198255397672238E+00
    0.73099213551264696775E+00
    0.77611488849424559167E+00
    0.75428464826365537732E+00
    0.69014148718792389658E+00
    0.59410986610759275450E+00
    0.52282429862616086602E+00
    0.52213953552685077319E+00
