# vtk DataFile Version 3.0
LAPLACIEN  2D
ASCII
DATASET UNSTRUCTURED_GRID
 POINTS         391  float
  0.50371505999999999       0.50367786999999997        0.0000000000000000     
  0.29013556000000001       0.29014535000000002        0.0000000000000000     
  0.70165584999999997       0.71206597999999999        0.0000000000000000     
  0.70304188999999995       0.30176619999999998        0.0000000000000000     
  0.30920671999999999       0.71149227999999998        0.0000000000000000     
  0.79044983999999996       0.49884783999999999        0.0000000000000000     
  0.49102621000000002       0.20968644000000000        0.0000000000000000     
  0.49912957000000002       0.77208717000000004        0.0000000000000000     
  0.21724072999999999       0.48989389000000000        0.0000000000000000     
  0.83255933999999998       0.83046598000000005        0.0000000000000000     
  0.16646774000000000       0.17015694000000001        0.0000000000000000     
  0.83054514999999995       0.16736480000000001        0.0000000000000000     
  0.16953130999999999       0.83265739000000005        0.0000000000000000     
  0.42166445000000002       0.36345201999999999        0.0000000000000000     
  0.64462200999999997       0.56347807999999999        0.0000000000000000     
  0.35324633999999999       0.56311191000000005        0.0000000000000000     
  0.65456411000000003       0.84856860999999995        0.0000000000000000     
  0.35141477999999998       0.15563974000000000        0.0000000000000000     
  0.15290967000000000       0.35206625000000003        0.0000000000000000     
  0.82942241000000005       0.34936866000000000        0.0000000000000000     
  0.84390527000000004       0.64441694999999999        0.0000000000000000     
  0.63699174999999997       0.14284276000000001        0.0000000000000000     
  0.15620682999999999       0.64648446999999998        0.0000000000000000     
  0.36426062999999997       0.85756310999999996        0.0000000000000000     
  0.63489340999999999       0.40519052000000000        0.0000000000000000     
  0.52518872999999999       0.65957078000000002        0.0000000000000000     
  0.32158959999999998       0.42298103999999997        0.0000000000000000     
  0.58861710000000000       0.31711036999999997        0.0000000000000000     
  0.42078418000000001       0.69497151999999995        0.0000000000000000     
  0.48608786999999998       0.89334152000000000        0.0000000000000000     
   9.7084320000000002E-002  0.50000000000000000        0.0000000000000000     
  0.90291568000000000       0.50000000000000000        0.0000000000000000     
  0.51392453000000005       0.10668648999999999        0.0000000000000000     
  0.59792566999999996       0.73122754000000001        0.0000000000000000     
  0.74510058999999995       0.41124730999999998        0.0000000000000000     
  0.73212551999999997       0.90191560000000004        0.0000000000000000     
   9.7784830000000003E-002  0.26957329000000002        0.0000000000000000     
  0.26711221000000002        9.8671499999999995E-002   0.0000000000000000     
  0.90191560000000004       0.26787448000000003        0.0000000000000000     
  0.90118569000000004       0.73039821000000005        0.0000000000000000     
  0.73122947000000005        9.8017859999999998E-002   0.0000000000000000     
   9.8084400000000002E-002  0.73212551999999997        0.0000000000000000     
  0.26957329000000002       0.90221516999999996        0.0000000000000000     
  0.39283522999999998       0.25360379000000000        0.0000000000000000     
  0.74480864000000002       0.60495284999999999        0.0000000000000000     
  0.25505132000000003       0.60593640999999998        0.0000000000000000     
  0.52159297999999998       0.40671636000000000        0.0000000000000000     
  0.40768852000000000       0.47699891000000000        0.0000000000000000     
   9.1467049999999994E-002   9.1876959999999994E-002   0.0000000000000000     
  0.90842484999999995       0.90819225000000003        0.0000000000000000     
  0.90820104999999995        9.1566729999999999E-002   0.0000000000000000     
   9.1807449999999999E-002  0.90843574000000005        0.0000000000000000     
  0.27098960000000000       0.20527094000000001        0.0000000000000000     
  0.73457293999999995       0.79835387000000002        0.0000000000000000     
  0.79817773000000003       0.25713470999999999        0.0000000000000000     
  0.20747797000000001       0.72863946000000002        0.0000000000000000     
  0.20175195000000001       0.27583914999999998        0.0000000000000000     
  0.79603889000000005       0.72159035000000005        0.0000000000000000     
  0.71761666000000002       0.19748431999999999        0.0000000000000000     
  0.28462607000000001       0.80251899999999998        0.0000000000000000     
  0.69134598999999997       0.49261972999999998        0.0000000000000000     
  0.44720578999999999       0.58582935999999997        0.0000000000000000     
  0.24242269999999999       0.37228174000000003        0.0000000000000000     
  0.38265623999999998       0.93072131999999996        0.0000000000000000     
  0.60971754000000000       0.91988369000000003        0.0000000000000000     
   7.9163609999999995E-002  0.60979116000000000        0.0000000000000000     
  0.92010649000000000       0.61081183999999999        0.0000000000000000     
  0.61954008999999999        7.1530830000000004E-002   0.0000000000000000     
  0.91882012999999996       0.38917363999999999        0.0000000000000000     
  0.39086346000000000        8.0652249999999995E-002   0.0000000000000000     
   7.9183480000000001E-002  0.38966213000000000        0.0000000000000000     
  0.59114111999999996       0.49294315000000000        0.0000000000000000     
  0.63337980999999999       0.64485914000000000        0.0000000000000000     
  0.50012352000000004       0.29676539000000002        0.0000000000000000     
  0.82552601000000003       0.92753492000000004        0.0000000000000000     
  0.92774772999999999       0.82498556999999995        0.0000000000000000     
   7.1970870000000006E-002  0.17510291000000000        0.0000000000000000     
  0.17422821999999999        7.2635640000000001E-002   0.0000000000000000     
  0.82510813000000005        7.2134840000000006E-002   0.0000000000000000     
  0.92754665000000003       0.17446275999999999        0.0000000000000000     
  0.17501022999999999       0.92789951999999998        0.0000000000000000     
   7.2464680000000004E-002  0.82554053000000005        0.0000000000000000     
  0.30731587999999999       0.50885354999999999        0.0000000000000000     
  0.59033407999999998       0.22171178999999999        0.0000000000000000     
  0.40109191999999999       0.78725542000000004        0.0000000000000000     
  0.35420917000000002       0.63754104000000000        0.0000000000000000     
  0.15983976999999999       0.56665573000000002        0.0000000000000000     
  0.84108459999999996       0.56757886999999996        0.0000000000000000     
  0.83902096000000004       0.43344338999999998        0.0000000000000000     
  0.43230028999999998       0.16004268999999999        0.0000000000000000     
  0.57536027999999995       0.83041363999999995        0.0000000000000000     
  0.15771898000000001       0.42747892999999998        0.0000000000000000     
  0.34021692999999997       0.34221559000000001        0.0000000000000000     
  0.56002271999999997       0.57501117999999996        0.0000000000000000     
  0.65344329000000001       0.78147597999999996        0.0000000000000000     
   0.0000000000000000        0.0000000000000000        0.0000000000000000     
   1.0000000000000000        0.0000000000000000        0.0000000000000000     
   1.0000000000000000        1.0000000000000000        0.0000000000000000     
   0.0000000000000000        1.0000000000000000        0.0000000000000000     
  0.11111111000000000        0.0000000000000000        0.0000000000000000     
  0.22222222000000000        0.0000000000000000        0.0000000000000000     
  0.33333332999999998        0.0000000000000000        0.0000000000000000     
  0.44444444000000000        0.0000000000000000        0.0000000000000000     
  0.55555555999999995        0.0000000000000000        0.0000000000000000     
  0.66666667000000002        0.0000000000000000        0.0000000000000000     
  0.77777777999999997        0.0000000000000000        0.0000000000000000     
  0.88888889000000004        0.0000000000000000        0.0000000000000000     
   1.0000000000000000       0.11111111000000000        0.0000000000000000     
   1.0000000000000000       0.22222222000000000        0.0000000000000000     
   1.0000000000000000       0.33333332999999998        0.0000000000000000     
   1.0000000000000000       0.44444444000000000        0.0000000000000000     
   1.0000000000000000       0.55555555999999995        0.0000000000000000     
   1.0000000000000000       0.66666667000000002        0.0000000000000000     
   1.0000000000000000       0.77777777999999997        0.0000000000000000     
   1.0000000000000000       0.88888889000000004        0.0000000000000000     
  0.88888889000000004        1.0000000000000000        0.0000000000000000     
  0.77777777999999997        1.0000000000000000        0.0000000000000000     
  0.66666667000000002        1.0000000000000000        0.0000000000000000     
  0.55555555999999995        1.0000000000000000        0.0000000000000000     
  0.44444444000000000        1.0000000000000000        0.0000000000000000     
  0.33333332999999998        1.0000000000000000        0.0000000000000000     
  0.22222222000000000        1.0000000000000000        0.0000000000000000     
  0.11111111000000000        1.0000000000000000        0.0000000000000000     
   0.0000000000000000       0.11111111000000000        0.0000000000000000     
   0.0000000000000000       0.22222222000000000        0.0000000000000000     
[...]
 CELL_DATA         354
 SCALARS C float
 LOOKUP_TABLE default
    0.74260881499060737987E+00
    0.11472372134602317750E+01
    0.51939404016761381300E+00
    0.59886133324289503310E+00
    0.85995644342229893287E+00
    0.97493668498657681809E+00
    0.12363337729593464331E+01
    0.11079756977687837960E+01
    0.13430415258196375383E+01
    0.14129499403787082468E+01
    0.14770910010309463711E+01
    0.14632940434527541562E+01
    0.14867676445318411815E+01
    0.14906449182980432422E+01
    0.14830610748999557558E+01
    0.14874785206279610428E+01
    0.14545751210348465410E+01
    0.14091386839021780020E+01
    0.12603973435424451477E+01
    0.13339706319393183076E+01
    0.12176065086655158964E+01
    0.12549167444930608983E+01
    0.13382845706987425149E+01
    0.12993217693195699969E+01
    0.13476275515675153471E+01
    0.13275134450165047006E+01
    0.12580782462446826742E+01
    0.12962108472873823395E+01
    0.11854689826875268732E+01
    0.10803976796380783121E+01
    0.85789006973543457946E+00
    0.97267895531503079098E+00
    0.74687506670560654953E+00
    0.63493392592479491743E+00
    0.52211185527299031062E+00
    0.56622440159919773528E+00
    0.51322149694411678400E+00
    0.52082667540457783240E+00
    0.56552341081988266591E+00
    0.53175752907353379673E+00
    0.58022917529213025034E+00
    0.58343255543684713338E+00
    0.60221088727984994904E+00
    0.58867793930309109118E+00
    0.59081847062318071373E+00
    0.54849732994192978985E+00
    0.52192376831045872443E+00
    0.53283932850173487683E+00
    0.51711959075707958355E+00
    0.50782129721765423280E+00
    0.54727733391218769121E+00
    0.52843777653981971465E+00
    0.78363270581496846656E+00
    0.80699041369365487331E+00
    0.88966703612989883609E+00
    0.84143397556174392982E+00
    0.89818981526306740371E+00
    0.86865057281157609381E+00
    0.81624120359317664519E+00
    0.84283946179141988608E+00
    0.76649291454809453938E+00
    0.68659711404116219313E+00
    0.57237693978774517589E+00
    0.62945291414910975458E+00
    0.53721758631879612533E+00
    0.50595134832225174826E+00
    0.53691516958928287018E+00
    0.51795912796587528781E+00
    0.14362235572260844130E+01
    0.14890176897040854342E+01
    0.14862661912023193977E+01
    0.14735952872541728809E+01
    0.14936119453540672719E+01
    0.14870431224838456252E+01
    0.14674047391625468784E+01
    0.14245992398679883095E+01
    0.14525167681514745688E+01
    0.14914343050943597024E+01
    0.12189037687194343995E+01
    0.13100627265242381636E+01
    0.10741465820055178249E+01
    0.11585528278404602087E+01
    0.13179141751799876570E+01
    0.11212671796065731833E+01
    0.14457184151843955888E+01
    0.13227073421383785945E+01
    0.11987490297444276521E+01
    0.14153366006700447421E+01
    0.14367346447437379098E+01
    0.13842406584078328358E+01
    0.12651781531781767232E+01
    0.11264945496740592645E+01
    0.10888487337410353017E+01
    0.91829074948364652897E+00
    0.88525598795408388941E+00
    0.98648301077829547712E+00
    0.11633930135256254079E+01
    0.14235556562422579940E+01
    0.14889151428497964247E+01
    0.14542996039111146800E+01
    0.14908310020683250841E+01
    0.14214992654508580294E+01
    0.14804283052797140297E+01
    0.14111845956351432019E+01
    0.14052215446717655212E+01
    0.12981122101033997218E+01
    0.12987383295919989745E+01
    0.14289150505278731540E+01
    0.12289795931104314786E+01
    0.11539054745427033133E+01
    0.89090705513543810845E+00
    0.11437041420792291024E+01
    0.99887470428286717627E+00
    0.98209033360355491027E+00
    0.13960634799585847077E+01
    0.11025911030428956483E+01
    0.12238825709901954841E+01
    0.13501565245313764674E+01
    0.13500051739741367740E+01
    0.11284341607543526553E+01
    0.12221917822691950040E+01
    0.70354969246698773055E+00
    0.81977139408613042271E+00
    0.62320472844422303282E+00
    0.84058640391018124571E+00
    0.91071603348009788625E+00
    0.63407157201897312859E+00
    0.68783039661978717660E+00
    0.11354404107224356224E+01
    0.12897648540036561471E+01
    0.10503271690954372186E+01
    0.13397851166599468176E+01
    0.12784023844620868715E+01
    0.10544760085883766454E+01
    0.11572034464927469788E+01
    0.14704010048721345427E+01
    0.14931762383822466678E+01
    0.14137637159450722191E+01
    0.14921569731785244706E+01
    0.14795979172492039755E+01
    0.14598611019727885107E+01
    0.14292224489544493871E+01
    0.58647293200232608612E+00
    0.56168040473837976823E+00
    0.51889449827234446211E+00
    0.67090648823377385668E+00
    0.65260349090515745729E+00
    0.52221637614786198256E+00
    0.52825658556510690644E+00
    0.14797448565448763080E+01
    0.14418748297071226627E+01
    0.13889519076336911407E+01
    0.14697212690697918358E+01
    0.13489369280458725076E+01
    0.14766585141503441037E+01
    0.14630568808696566840E+01
    0.14935039482561061064E+01
    0.14893697695411176607E+01
    0.14586781915128965714E+01
    0.14918741097247185667E+01
    0.13050817223810307066E+01
    0.14620042081249928767E+01
    0.14350348515589055332E+01
    0.14089545908904352878E+01
    0.13456790856468923145E+01
    0.75248668586213907084E+00
    0.87742761928357437817E+00
    0.75034679839581475136E+00
    0.86618063847789250609E+00
    0.93618366117991536068E+00
    0.14440531084589587341E+01
    0.14881561215858929437E+01
    0.14740352976397770313E+01
    0.14868416336011145429E+01
    0.14910453519855402238E+01
    0.11421792413804581212E+01
    0.12770890868819890773E+01
    0.13110922192507328266E+01
    0.11001975772894536654E+01
    0.12007394545644887174E+01
    0.14838804054209866479E+01
    0.14788112567855782320E+01
    0.14906806925321665069E+01
    0.14629877097258108254E+01
    0.14902990465668222164E+01
    0.10563945045905080988E+01
    0.12996851724044462539E+01
    0.11491323811173428382E+01
    0.11591392965406321913E+01
    0.12826464713916203575E+01
    0.14431714280781815507E+01
    0.14718205193042452894E+01
    0.14274708064791270523E+01
    0.14712371363454344042E+01
    0.13577892511031475209E+01
    0.73021129413035090749E+00
    0.99311202250869357044E+00
    0.83224130581565525233E+00
    0.79429308554109101514E+00
    0.93471768864087056983E+00
    0.71687872554863030228E+00
    0.63303640563581531353E+00
    0.73183568238583474042E+00
    0.63982699896361472369E+00
    0.81047753845881609358E+00
    0.12142132080579863818E+01
    0.14089743989817211656E+01
    0.13227945596438317466E+01
    0.14304421916155771743E+01
    0.14066488013037308225E+01
    0.13038300475189579242E+01
    0.12911176425085035824E+01
    0.14173551524584200312E+01
    0.13931396296353419917E+01
    0.14433945755350756635E+01
    0.14919637398955452046E+01
    0.14497629929972013496E+01
    0.14503482648998984317E+01
    0.14919486652927189674E+01
    0.12047386365783907536E+01
    0.11439339403756323410E+01
    0.11376356293608986814E+01
    0.13493488089867813340E+01
    0.10809315638310414975E+01
    0.12570783550844781828E+01
    0.63193645864882463936E+00
    0.68328765974876592981E+00
    0.83393402969136254388E+00
    0.81340663653909095476E+00
    0.82842907425008938116E+00
    0.95221767319477823577E+00
    0.97628397987468662489E+00
    0.10698238948930320902E+01
    0.12322104417631019047E+01
    0.13736249411858549863E+01
    0.13494239712882125648E+01
    0.14265469964396839675E+01
    0.14859038048068264892E+01
    0.14886910276910492179E+01
    0.13682913291634626329E+01
    0.14741766861003067213E+01
    0.13126721457204293397E+01
    0.10593602447278815948E+01
    0.11171027522960703671E+01
    0.14775917975842625118E+01
    0.14891746931984708446E+01
    0.79136170645284842351E+00
    0.65729997402715811816E+00
    0.60378642610352806219E+00
    0.12069091705349466181E+01
    0.10113350257312974101E+01
    0.98995810653502980259E+00
    0.14046404503219167559E+01
    0.14306341973174947491E+01
    0.12277126412544820955E+01
    0.14832482173840637607E+01
    0.14258261280587798403E+01
    0.14060907358848901971E+01
    0.98338690901330672034E+00
    0.10082395808985806784E+01
    0.74470940792617823512E+00
    0.14760947139696019015E+01
    0.14954018378801767764E+01
    0.14696402414005804715E+01
    0.69440758073139974282E+00
    0.66938925835348905835E+00
    0.54166891892089530369E+00
    0.64360718406019479243E+00
    0.56702829617221861547E+00
    0.52013292125864851734E+00
    0.14780578318628809775E+01
    0.13642719540461796246E+01
    0.14681515802650704217E+01
    0.14844354262032080083E+01
    0.12494108443573723743E+01
    0.14710898703273171950E+01
    0.14079352384033887446E+01
    0.13840231215749767557E+01
    0.97456480937356149141E+00
    0.13074230609191772601E+01
    0.12273061591641218904E+01
    0.10865663851145137553E+01
    0.14392048492037938789E+01
    0.14079196723650055922E+01
    0.12738552204695479109E+01
    0.14833761624660484202E+01
    0.14660102217498092170E+01
    0.92054550785245048417E+00
    0.10097554999896023453E+01
    0.55048177021233446471E+00
    0.58543571641035485609E+00
    0.13799803765473981354E+01
    0.13452455499279127871E+01
    0.50682089729349355522E+00
    0.50649598237045134752E+00
    0.13958638877029467817E+01
    0.10037979026059042909E+01
    0.99483369638002772106E+00
    0.14645711483190209101E+01
    0.77311513928937847240E+00
    0.13809234318839989086E+01
    0.13402672037004883521E+01
    0.85080151331084208355E+00
    0.14747080090985140721E+01
    0.13684823179092584500E+01
    0.14771974858029515154E+01
    0.12950572117927867666E+01
    0.14700978297165063768E+01
    0.77766247651311737332E+00
    0.87459496015224957866E+00
    0.12502764524295479909E+01
    0.14478367040884607686E+01
    0.14895702229669975925E+01
    0.10788713192534062912E+01
    0.14889287026900459576E+01
    0.14554549702362911123E+01
    0.12017293535080932898E+01
    0.98308645969324215397E+00
    0.72148035300284851790E+00
    0.65560677531376920779E+00
    0.11036635511651540220E+01
    0.10631927285006779194E+01
    0.51883462081625753015E+00
    0.51701140705116510610E+00
    0.63760916651238053188E+00
    0.62586739307862682136E+00
    0.97752268290918298277E+00
    0.12293719293204508070E+01
    0.13941811105566332962E+01
    0.14661958178074556702E+01
    0.14743443235093645072E+01
    0.14361575391573926375E+01
    0.13138565609312331528E+01
    0.11913856069904984469E+01
    0.12527593078952052874E+01
    0.12251853813913260449E+01
    0.11232320016783621242E+01
    0.94252578204605741430E+00
    0.73568733565419652809E+00
    0.56729275500798759246E+00
    0.50486908643355077331E+00
    0.52022974848421121852E+00
    0.53044617709957797569E+00
    0.52970635553846834309E+00
    0.51054074545068373059E+00
    0.50572477818560135354E+00
    0.53970153003359755406E+00
    0.73099681413860129187E+00
    0.77612039919330988447E+00
    0.75428999097072213509E+00
    0.69014631590316810605E+00
    0.59411355244584007629E+00
    0.52282687704578234555E+00
    0.52213985106787930146E+00
