# vtk DataFile Version 3.0
LAPLACIEN  2D
ASCII
DATASET UNSTRUCTURED_GRID
 POINTS         391  float
  0.50371505999999999       0.50367786999999997        0.0000000000000000     
  0.29013556000000001       0.29014535000000002        0.0000000000000000     
  0.70165584999999997       0.71206597999999999        0.0000000000000000     
  0.70304188999999995       0.30176619999999998        0.0000000000000000     
  0.30920671999999999       0.71149227999999998        0.0000000000000000     
  0.79044983999999996       0.49884783999999999        0.0000000000000000     
  0.49102621000000002       0.20968644000000000        0.0000000000000000     
  0.49912957000000002       0.77208717000000004        0.0000000000000000     
  0.21724072999999999       0.48989389000000000        0.0000000000000000     
  0.83255933999999998       0.83046598000000005        0.0000000000000000     
  0.16646774000000000       0.17015694000000001        0.0000000000000000     
  0.83054514999999995       0.16736480000000001        0.0000000000000000     
  0.16953130999999999       0.83265739000000005        0.0000000000000000     
  0.42166445000000002       0.36345201999999999        0.0000000000000000     
  0.64462200999999997       0.56347807999999999        0.0000000000000000     
  0.35324633999999999       0.56311191000000005        0.0000000000000000     
  0.65456411000000003       0.84856860999999995        0.0000000000000000     
  0.35141477999999998       0.15563974000000000        0.0000000000000000     
  0.15290967000000000       0.35206625000000003        0.0000000000000000     
  0.82942241000000005       0.34936866000000000        0.0000000000000000     
  0.84390527000000004       0.64441694999999999        0.0000000000000000     
  0.63699174999999997       0.14284276000000001        0.0000000000000000     
  0.15620682999999999       0.64648446999999998        0.0000000000000000     
  0.36426062999999997       0.85756310999999996        0.0000000000000000     
  0.63489340999999999       0.40519052000000000        0.0000000000000000     
  0.52518872999999999       0.65957078000000002        0.0000000000000000     
  0.32158959999999998       0.42298103999999997        0.0000000000000000     
  0.58861710000000000       0.31711036999999997        0.0000000000000000     
  0.42078418000000001       0.69497151999999995        0.0000000000000000     
  0.48608786999999998       0.89334152000000000        0.0000000000000000     
   9.7084320000000002E-002  0.50000000000000000        0.0000000000000000     
  0.90291568000000000       0.50000000000000000        0.0000000000000000     
  0.51392453000000005       0.10668648999999999        0.0000000000000000     
  0.59792566999999996       0.73122754000000001        0.0000000000000000     
  0.74510058999999995       0.41124730999999998        0.0000000000000000     
  0.73212551999999997       0.90191560000000004        0.0000000000000000     
   9.7784830000000003E-002  0.26957329000000002        0.0000000000000000     
  0.26711221000000002        9.8671499999999995E-002   0.0000000000000000     
  0.90191560000000004       0.26787448000000003        0.0000000000000000     
  0.90118569000000004       0.73039821000000005        0.0000000000000000     
  0.73122947000000005        9.8017859999999998E-002   0.0000000000000000     
   9.8084400000000002E-002  0.73212551999999997        0.0000000000000000     
  0.26957329000000002       0.90221516999999996        0.0000000000000000     
  0.39283522999999998       0.25360379000000000        0.0000000000000000     
  0.74480864000000002       0.60495284999999999        0.0000000000000000     
  0.25505132000000003       0.60593640999999998        0.0000000000000000     
  0.52159297999999998       0.40671636000000000        0.0000000000000000     
  0.40768852000000000       0.47699891000000000        0.0000000000000000     
   9.1467049999999994E-002   9.1876959999999994E-002   0.0000000000000000     
  0.90842484999999995       0.90819225000000003        0.0000000000000000     
  0.90820104999999995        9.1566729999999999E-002   0.0000000000000000     
   9.1807449999999999E-002  0.90843574000000005        0.0000000000000000     
  0.27098960000000000       0.20527094000000001        0.0000000000000000     
  0.73457293999999995       0.79835387000000002        0.0000000000000000     
  0.79817773000000003       0.25713470999999999        0.0000000000000000     
  0.20747797000000001       0.72863946000000002        0.0000000000000000     
  0.20175195000000001       0.27583914999999998        0.0000000000000000     
  0.79603889000000005       0.72159035000000005        0.0000000000000000     
  0.71761666000000002       0.19748431999999999        0.0000000000000000     
  0.28462607000000001       0.80251899999999998        0.0000000000000000     
  0.69134598999999997       0.49261972999999998        0.0000000000000000     
  0.44720578999999999       0.58582935999999997        0.0000000000000000     
  0.24242269999999999       0.37228174000000003        0.0000000000000000     
  0.38265623999999998       0.93072131999999996        0.0000000000000000     
  0.60971754000000000       0.91988369000000003        0.0000000000000000     
   7.9163609999999995E-002  0.60979116000000000        0.0000000000000000     
  0.92010649000000000       0.61081183999999999        0.0000000000000000     
  0.61954008999999999        7.1530830000000004E-002   0.0000000000000000     
  0.91882012999999996       0.38917363999999999        0.0000000000000000     
  0.39086346000000000        8.0652249999999995E-002   0.0000000000000000     
   7.9183480000000001E-002  0.38966213000000000        0.0000000000000000     
  0.59114111999999996       0.49294315000000000        0.0000000000000000     
  0.63337980999999999       0.64485914000000000        0.0000000000000000     
  0.50012352000000004       0.29676539000000002        0.0000000000000000     
  0.82552601000000003       0.92753492000000004        0.0000000000000000     
  0.92774772999999999       0.82498556999999995        0.0000000000000000     
   7.1970870000000006E-002  0.17510291000000000        0.0000000000000000     
  0.17422821999999999        7.2635640000000001E-002   0.0000000000000000     
  0.82510813000000005        7.2134840000000006E-002   0.0000000000000000     
  0.92754665000000003       0.17446275999999999        0.0000000000000000     
  0.17501022999999999       0.92789951999999998        0.0000000000000000     
   7.2464680000000004E-002  0.82554053000000005        0.0000000000000000     
  0.30731587999999999       0.50885354999999999        0.0000000000000000     
  0.59033407999999998       0.22171178999999999        0.0000000000000000     
  0.40109191999999999       0.78725542000000004        0.0000000000000000     
  0.35420917000000002       0.63754104000000000        0.0000000000000000     
  0.15983976999999999       0.56665573000000002        0.0000000000000000     
  0.84108459999999996       0.56757886999999996        0.0000000000000000     
  0.83902096000000004       0.43344338999999998        0.0000000000000000     
  0.43230028999999998       0.16004268999999999        0.0000000000000000     
  0.57536027999999995       0.83041363999999995        0.0000000000000000     
  0.15771898000000001       0.42747892999999998        0.0000000000000000     
  0.34021692999999997       0.34221559000000001        0.0000000000000000     
  0.56002271999999997       0.57501117999999996        0.0000000000000000     
  0.65344329000000001       0.78147597999999996        0.0000000000000000     
   0.0000000000000000        0.0000000000000000        0.0000000000000000     
   1.0000000000000000        0.0000000000000000        0.0000000000000000     
   1.0000000000000000        1.0000000000000000        0.0000000000000000     
   0.0000000000000000        1.0000000000000000        0.0000000000000000     
  0.11111111000000000        0.0000000000000000        0.0000000000000000     
  0.22222222000000000        0.0000000000000000        0.0000000000000000     
  0.33333332999999998        0.0000000000000000        0.0000000000000000     
  0.44444444000000000        0.0000000000000000        0.0000000000000000     
  0.55555555999999995        0.0000000000000000        0.0000000000000000     
  0.66666667000000002        0.0000000000000000        0.0000000000000000     
  0.77777777999999997        0.0000000000000000        0.0000000000000000     
  0.88888889000000004        0.0000000000000000        0.0000000000000000     
   1.0000000000000000       0.11111111000000000        0.0000000000000000     
   1.0000000000000000       0.22222222000000000        0.0000000000000000     
   1.0000000000000000       0.33333332999999998        0.0000000000000000     
   1.0000000000000000       0.44444444000000000        0.0000000000000000     
   1.0000000000000000       0.55555555999999995        0.0000000000000000     
   1.0000000000000000       0.66666667000000002        0.0000000000000000     
   1.0000000000000000       0.77777777999999997        0.0000000000000000     
   1.0000000000000000       0.88888889000000004        0.0000000000000000     
  0.88888889000000004        1.0000000000000000        0.0000000000000000     
  0.77777777999999997        1.0000000000000000        0.0000000000000000     
  0.66666667000000002        1.0000000000000000        0.0000000000000000     
  0.55555555999999995        1.0000000000000000        0.0000000000000000     
  0.44444444000000000        1.0000000000000000        0.0000000000000000     
  0.33333332999999998        1.0000000000000000        0.0000000000000000     
  0.22222222000000000        1.0000000000000000        0.0000000000000000     
  0.11111111000000000        1.0000000000000000        0.0000000000000000     
   0.0000000000000000       0.11111111000000000        0.0000000000000000     
   0.0000000000000000       0.22222222000000000        0.0000000000000000     
[...]
 CELL_DATA         354
 SCALARS C float
 LOOKUP_TABLE default
    0.74261098973598227424E+00
    0.11472392672152100790E+01
    0.51939449726782704886E+00
    0.59886041747441698391E+00
    0.85995672280516743946E+00
    0.97493735052586605327E+00
    0.12363349442735600547E+01
    0.11079767336009191947E+01
    0.13430419772730266548E+01
    0.14129497889781066355E+01
    0.14770907083009994221E+01
    0.14632938758081195374E+01
    0.14867671368817505506E+01
    0.14906443193393767999E+01
    0.14830605813304349461E+01
    0.14874778391194007909E+01
    0.14545751597667058164E+01
    0.14091389712891642105E+01
    0.12603972881333365130E+01
    0.13339706632385475160E+01
    0.12176075294709738372E+01
    0.12549175364185680692E+01
    0.13382856260091349210E+01
    0.12993228387307418359E+01
    0.13476288631812236574E+01
    0.13275146571144629259E+01
    0.12580793991741483495E+01
    0.12962118364090808864E+01
    0.11854707750358313145E+01
    0.10803994305345641092E+01
    0.85789207423357249915E+00
    0.97268055348079607292E+00
    0.74687739885690318520E+00
    0.63493553744636788139E+00
    0.52211278449295539517E+00
    0.56622564899841509867E+00
    0.51322211038953979845E+00
    0.52082765811338804784E+00
    0.56552500156062179837E+00
    0.53175867630499373817E+00
    0.58023141020206991936E+00
    0.58343467857967745704E+00
    0.60221327657735734817E+00
    0.58868006333070554970E+00
    0.59082036791308878421E+00
    0.54849889789796679729E+00
    0.52192527636010099812E+00
    0.53284109878930963067E+00
    0.51712054730276135750E+00
    0.50782170074894228406E+00
    0.54727727238692502887E+00
    0.52843818972216316521E+00
    0.78363453061529719790E+00
    0.80699206314516813698E+00
    0.88966929261208693713E+00
    0.84143603047327575339E+00
    0.89819279913903937729E+00
    0.86865327925410151799E+00
    0.81624348908340449427E+00
    0.84284168573321460727E+00
    0.76649545060785428952E+00
    0.68659926362200840444E+00
    0.57237907355384753938E+00
    0.62945504448170264133E+00
    0.53721916029089489264E+00
    0.50595215680850924578E+00
    0.53691554884243153367E+00
    0.51795986225675005876E+00
    0.14362225940242692168E+01
    0.14890163474755353512E+01
    0.14862646032551016795E+01
    0.14735941737022530962E+01
    0.14936106015610006725E+01
    0.14870421317967033037E+01
    0.14674034013446728419E+01
    0.14245974225846180783E+01
    0.14525152268117969001E+01
    0.14914329467217908309E+01
    0.12189037727250506826E+01
    0.13100622232668865941E+01
    0.10741459415980663117E+01
    0.11585523733927294288E+01
    0.13179126987675675586E+01
    0.11212679585380258551E+01
    0.14457177138330181698E+01
    0.13227084287240746807E+01
    0.11987551602947292828E+01
    0.14153357130325547875E+01
    0.14367339819088866815E+01
    0.13842393841460045589E+01
    0.12651810053048240245E+01
    0.11264924093156651885E+01
    0.10888473513703980089E+01
    0.91829034647684470993E+00
    0.88525598161408858289E+00
    0.98648245329553740923E+00
    0.11633904683362452648E+01
    0.14235543050433481227E+01
    0.14889140252620682858E+01
    0.14542982696042530133E+01
    0.14908295813338905411E+01
    0.14214984417357945379E+01
    0.14804268129907853790E+01
    0.14111845448552080562E+01
    0.14052217155471016241E+01
    0.12981122665537347949E+01
    0.12987381690512531662E+01
    0.14289139313903584938E+01
    0.12289783024982963155E+01
    0.11539049217848311724E+01
    0.89090546916718726944E+00
    0.11437036462343725951E+01
    0.99887348586182145294E+00
    0.98209012454358224353E+00
    0.13960616174173574588E+01
    0.11025902604816781860E+01
    0.12238815095960078327E+01
    0.13501557763166887050E+01
    0.13500031623739028319E+01
    0.11284349392830594905E+01
    0.12221910850500625756E+01
    0.70355050276462660630E+00
    0.81977202706020757539E+00
    0.62320564640629316777E+00
    0.84058558583204012749E+00
    0.91071524718092633499E+00
    0.63407355412497312663E+00
    0.68783196573454774558E+00
    0.11354402099784806079E+01
    0.12897640491285509157E+01
    0.10503272179957559018E+01
    0.13397830735548554859E+01
    0.12784005982354640363E+01
    0.10544769723884401813E+01
    0.11572035840954169039E+01
    0.14703996308530922210E+01
    0.14931749623362238211E+01
    0.14137628594745477173E+01
    0.14921554443386346733E+01
    0.14795968751012069653E+01
    0.14598598356049188318E+01
    0.14292218091515405121E+01
    0.58647433940820037357E+00
    0.56168197312387357911E+00
    0.51889553781476538408E+00
    0.67090661628703407438E+00
    0.65260389919209238485E+00
    0.52221808617283915765E+00
    0.52825841315284438604E+00
    0.14797437491411860044E+01
    0.14418739843300873993E+01
    0.13889516481139656534E+01
    0.14697203889830026124E+01
    0.13489371180601010813E+01
    0.14766571746747749749E+01
    0.14630549635598655289E+01
    0.14935024893615336250E+01
    0.14893685530619416024E+01
    0.14586761672140107216E+01
    0.14918728761507051850E+01
    0.13050794735980582040E+01
    0.14620035504287227646E+01
    0.14350336266664187601E+01
    0.14089530757732635635E+01
    0.13456774983501689213E+01
    0.75248561334538599521E+00
    0.87742682537736194082E+00
    0.75034541009015520707E+00
    0.86618089882430771009E+00
    0.93618346147010111924E+00
    0.14440509377069266073E+01
    0.14881548942130342628E+01
    0.14740337980881728086E+01
    0.14868397463253988366E+01
    0.14910440782836384965E+01
    0.11421769248578788059E+01
    0.12770881208188034073E+01
    0.13110919510953833456E+01
    0.11001951657276356489E+01
    0.12007388275211552386E+01
    0.14838792125087738594E+01
    0.14788093416284886494E+01
    0.14906794447171949347E+01
    0.14629858417827941164E+01
    0.14902976552873243854E+01
    0.10563921907057269856E+01
    0.12996845754567492026E+01
    0.11491316364194608113E+01
    0.11591370934040772234E+01
    0.12826455887757528540E+01
    0.14431703047088397796E+01
    0.14718196432401904339E+01
    0.14274699426883752373E+01
    0.14712351857365468799E+01
    0.13577895523979743864E+01
    0.73021027779374070299E+00
    0.99311264962567846748E+00
    0.83224184010697432878E+00
    0.79429196556336023605E+00
    0.93471775477016394440E+00
    0.71688080881891735885E+00
    0.63303646680859704254E+00
    0.73183676086659266158E+00
    0.63982858803250830526E+00
    0.81047877093850362318E+00
    0.12142169149838031306E+01
    0.14089733513888487160E+01
    0.13227954054057287081E+01
    0.14304416330355844700E+01
    0.14066481541376836262E+01
    0.13038285446879565033E+01
    0.12911166373263318619E+01
    0.14173535254331550703E+01
    0.13931382056746992593E+01
    0.14433928991355218230E+01
    0.14919622795849485364E+01
    0.14497610543821584095E+01
    0.14503468994319701491E+01
    0.14919475799876016353E+01
    0.12047429423610007682E+01
    0.11439411191152366598E+01
    0.11376442726987152643E+01
    0.13493478649179542206E+01
    0.10809309050511379802E+01
    0.12570770269167259592E+01
    0.63193869963342064189E+00
    0.68328795505485084849E+00
    0.83393312679896036688E+00
    0.81340580688240859963E+00
    0.82842874831916546441E+00
    0.95221659104295008902E+00
    0.97628357099734741631E+00
    0.10698215879983679066E+01
    0.12322091898673779298E+01
    0.13736230472651684842E+01
    0.13494224791897617699E+01
    0.14265447654505876152E+01
    0.14859015989974055927E+01
    0.14886898354775863762E+01
    0.13682925612511196434E+01
    0.14741754843638112948E+01
    0.13126708212209257098E+01
    0.10593597293694223538E+01
    0.11171029657947597613E+01
    0.14775906594453624976E+01
    0.14891735054936203753E+01
    0.79136116208784557102E+00
    0.65729973000586261467E+00
    0.60378823623013855304E+00
    0.12069076433410448335E+01
    0.10113338094414252577E+01
    0.98995873830175318275E+00
    0.14046383386624463618E+01
    0.14306320990505716484E+01
    0.12277130161653970752E+01
    0.14832464640099687347E+01
    0.14258244978829146543E+01
    0.14060897861027767952E+01
    0.98338563552888613728E+00
    0.10082377689515515939E+01
    0.74471123852683729361E+00
    0.14760937342955189333E+01
    0.14954005808337549333E+01
    0.14696391369995973619E+01
    0.69440759246364414103E+00
    0.66938899352609726456E+00
    0.54167071962756696557E+00
    0.64360768399397771944E+00
    0.56702901503764502333E+00
    0.52013463051975028506E+00
    0.14780568986297502043E+01
    0.13642730786010774935E+01
    0.14681503239844482245E+01
    0.14844338497642866059E+01
    0.12494107387648178964E+01
    0.14710884547800049393E+01
    0.14079334110000625291E+01
    0.13840220875170128334E+01
    0.97456530841533262066E+00
    0.13074203008194538178E+01
    0.12273040363143399301E+01
    0.10865668364863749762E+01
    0.14392043392218327735E+01
    0.14079187057131943295E+01
    0.12738574371859832102E+01
    0.14833748136132607343E+01
    0.14660093723435774216E+01
    0.92054553420371054706E+00
    0.10097550717641305962E+01
    0.55048284613382059138E+00
    0.58543654455544213988E+00
    0.13799791016050033665E+01
    0.13452444713701869894E+01
    0.50682206435869492367E+00
    0.50649717176307751387E+00
    0.13958619812141339622E+01
    0.10037971084957633128E+01
    0.99483282327983513227E+00
    0.14645702413075967208E+01
    0.77311496300522697389E+00
    0.13809222861302219432E+01
    0.13402660550603022749E+01
    0.85080265868687754427E+00
    0.14747070828432979894E+01
    0.13684816190349746723E+01
    0.14771959833668806272E+01
    0.12950577273576056037E+01
    0.14700964684002053584E+01
    0.77766168090583942529E+00
    0.87459408266019189604E+00
    0.12502748096935683009E+01
    0.14478347831998625850E+01
    0.14895689931822491126E+01
    0.10788695028718202629E+01
    0.14889277126083522163E+01
    0.14554532066035532623E+01
    0.12017328468497632254E+01
    0.98308629534072511369E+00
    0.72148142078827137702E+00
    0.65560967964962468812E+00
    0.11036649206545625646E+01
    0.10631953872711741305E+01
    0.51883507418980667758E+00
    0.51701161111728743958E+00
    0.63760801761366625584E+00
    0.62586672753504224431E+00
    0.97752411083502854794E+00
    0.12293737784763862919E+01
    0.13941821135250456187E+01
    0.14661961281891260356E+01
    0.14743446424312267595E+01
    0.14361582521257472145E+01
    0.13138576976589977363E+01
    0.11913881070903125092E+01
    0.12527619547319919224E+01
    0.12251880938784140973E+01
    0.11232348212488318939E+01
    0.94252864728294905028E+00
    0.73569011915977811089E+00
    0.56729402370448855919E+00
    0.50487001181992141596E+00
    0.52023160588001682303E+00
    0.53044827480420386756E+00
    0.52970853191128397519E+00
    0.51054218902151671244E+00
    0.50572554647373146874E+00
    0.53970122841017831306E+00
    0.73099993306500576917E+00
    0.77612407280243389529E+00
    0.75429355264291797489E+00
    0.69014953489649188967E+00
    0.59411600994636559747E+00
    0.52282859594050934415E+00
    0.52214006146194424929E+00
