# vtk DataFile Version 3.0
LAPLACIEN  2D
ASCII
DATASET UNSTRUCTURED_GRID
 POINTS         391  float
  0.50371505999999999       0.50367786999999997        0.0000000000000000     
  0.29013556000000001       0.29014535000000002        0.0000000000000000     
  0.70165584999999997       0.71206597999999999        0.0000000000000000     
  0.70304188999999995       0.30176619999999998        0.0000000000000000     
  0.30920671999999999       0.71149227999999998        0.0000000000000000     
  0.79044983999999996       0.49884783999999999        0.0000000000000000     
  0.49102621000000002       0.20968644000000000        0.0000000000000000     
  0.49912957000000002       0.77208717000000004        0.0000000000000000     
  0.21724072999999999       0.48989389000000000        0.0000000000000000     
  0.83255933999999998       0.83046598000000005        0.0000000000000000     
  0.16646774000000000       0.17015694000000001        0.0000000000000000     
  0.83054514999999995       0.16736480000000001        0.0000000000000000     
  0.16953130999999999       0.83265739000000005        0.0000000000000000     
  0.42166445000000002       0.36345201999999999        0.0000000000000000     
  0.64462200999999997       0.56347807999999999        0.0000000000000000     
  0.35324633999999999       0.56311191000000005        0.0000000000000000     
  0.65456411000000003       0.84856860999999995        0.0000000000000000     
  0.35141477999999998       0.15563974000000000        0.0000000000000000     
  0.15290967000000000       0.35206625000000003        0.0000000000000000     
  0.82942241000000005       0.34936866000000000        0.0000000000000000     
  0.84390527000000004       0.64441694999999999        0.0000000000000000     
  0.63699174999999997       0.14284276000000001        0.0000000000000000     
  0.15620682999999999       0.64648446999999998        0.0000000000000000     
  0.36426062999999997       0.85756310999999996        0.0000000000000000     
  0.63489340999999999       0.40519052000000000        0.0000000000000000     
  0.52518872999999999       0.65957078000000002        0.0000000000000000     
  0.32158959999999998       0.42298103999999997        0.0000000000000000     
  0.58861710000000000       0.31711036999999997        0.0000000000000000     
  0.42078418000000001       0.69497151999999995        0.0000000000000000     
  0.48608786999999998       0.89334152000000000        0.0000000000000000     
   9.7084320000000002E-002  0.50000000000000000        0.0000000000000000     
  0.90291568000000000       0.50000000000000000        0.0000000000000000     
  0.51392453000000005       0.10668648999999999        0.0000000000000000     
  0.59792566999999996       0.73122754000000001        0.0000000000000000     
  0.74510058999999995       0.41124730999999998        0.0000000000000000     
  0.73212551999999997       0.90191560000000004        0.0000000000000000     
   9.7784830000000003E-002  0.26957329000000002        0.0000000000000000     
  0.26711221000000002        9.8671499999999995E-002   0.0000000000000000     
  0.90191560000000004       0.26787448000000003        0.0000000000000000     
  0.90118569000000004       0.73039821000000005        0.0000000000000000     
  0.73122947000000005        9.8017859999999998E-002   0.0000000000000000     
   9.8084400000000002E-002  0.73212551999999997        0.0000000000000000     
  0.26957329000000002       0.90221516999999996        0.0000000000000000     
  0.39283522999999998       0.25360379000000000        0.0000000000000000     
  0.74480864000000002       0.60495284999999999        0.0000000000000000     
  0.25505132000000003       0.60593640999999998        0.0000000000000000     
  0.52159297999999998       0.40671636000000000        0.0000000000000000     
  0.40768852000000000       0.47699891000000000        0.0000000000000000     
   9.1467049999999994E-002   9.1876959999999994E-002   0.0000000000000000     
  0.90842484999999995       0.90819225000000003        0.0000000000000000     
  0.90820104999999995        9.1566729999999999E-002   0.0000000000000000     
   9.1807449999999999E-002  0.90843574000000005        0.0000000000000000     
  0.27098960000000000       0.20527094000000001        0.0000000000000000     
  0.73457293999999995       0.79835387000000002        0.0000000000000000     
  0.79817773000000003       0.25713470999999999        0.0000000000000000     
  0.20747797000000001       0.72863946000000002        0.0000000000000000     
  0.20175195000000001       0.27583914999999998        0.0000000000000000     
  0.79603889000000005       0.72159035000000005        0.0000000000000000     
  0.71761666000000002       0.19748431999999999        0.0000000000000000     
  0.28462607000000001       0.80251899999999998        0.0000000000000000     
  0.69134598999999997       0.49261972999999998        0.0000000000000000     
  0.44720578999999999       0.58582935999999997        0.0000000000000000     
  0.24242269999999999       0.37228174000000003        0.0000000000000000     
  0.38265623999999998       0.93072131999999996        0.0000000000000000     
  0.60971754000000000       0.91988369000000003        0.0000000000000000     
   7.9163609999999995E-002  0.60979116000000000        0.0000000000000000     
  0.92010649000000000       0.61081183999999999        0.0000000000000000     
  0.61954008999999999        7.1530830000000004E-002   0.0000000000000000     
  0.91882012999999996       0.38917363999999999        0.0000000000000000     
  0.39086346000000000        8.0652249999999995E-002   0.0000000000000000     
   7.9183480000000001E-002  0.38966213000000000        0.0000000000000000     
  0.59114111999999996       0.49294315000000000        0.0000000000000000     
  0.63337980999999999       0.64485914000000000        0.0000000000000000     
  0.50012352000000004       0.29676539000000002        0.0000000000000000     
  0.82552601000000003       0.92753492000000004        0.0000000000000000     
  0.92774772999999999       0.82498556999999995        0.0000000000000000     
   7.1970870000000006E-002  0.17510291000000000        0.0000000000000000     
  0.17422821999999999        7.2635640000000001E-002   0.0000000000000000     
  0.82510813000000005        7.2134840000000006E-002   0.0000000000000000     
  0.92754665000000003       0.17446275999999999        0.0000000000000000     
  0.17501022999999999       0.92789951999999998        0.0000000000000000     
   7.2464680000000004E-002  0.82554053000000005        0.0000000000000000     
  0.30731587999999999       0.50885354999999999        0.0000000000000000     
  0.59033407999999998       0.22171178999999999        0.0000000000000000     
  0.40109191999999999       0.78725542000000004        0.0000000000000000     
  0.35420917000000002       0.63754104000000000        0.0000000000000000     
  0.15983976999999999       0.56665573000000002        0.0000000000000000     
  0.84108459999999996       0.56757886999999996        0.0000000000000000     
  0.83902096000000004       0.43344338999999998        0.0000000000000000     
  0.43230028999999998       0.16004268999999999        0.0000000000000000     
  0.57536027999999995       0.83041363999999995        0.0000000000000000     
  0.15771898000000001       0.42747892999999998        0.0000000000000000     
  0.34021692999999997       0.34221559000000001        0.0000000000000000     
  0.56002271999999997       0.57501117999999996        0.0000000000000000     
  0.65344329000000001       0.78147597999999996        0.0000000000000000     
   0.0000000000000000        0.0000000000000000        0.0000000000000000     
   1.0000000000000000        0.0000000000000000        0.0000000000000000     
   1.0000000000000000        1.0000000000000000        0.0000000000000000     
   0.0000000000000000        1.0000000000000000        0.0000000000000000     
  0.11111111000000000        0.0000000000000000        0.0000000000000000     
  0.22222222000000000        0.0000000000000000        0.0000000000000000     
  0.33333332999999998        0.0000000000000000        0.0000000000000000     
  0.44444444000000000        0.0000000000000000        0.0000000000000000     
  0.55555555999999995        0.0000000000000000        0.0000000000000000     
  0.66666667000000002        0.0000000000000000        0.0000000000000000     
  0.77777777999999997        0.0000000000000000        0.0000000000000000     
  0.88888889000000004        0.0000000000000000        0.0000000000000000     
   1.0000000000000000       0.11111111000000000        0.0000000000000000     
   1.0000000000000000       0.22222222000000000        0.0000000000000000     
   1.0000000000000000       0.33333332999999998        0.0000000000000000     
   1.0000000000000000       0.44444444000000000        0.0000000000000000     
   1.0000000000000000       0.55555555999999995        0.0000000000000000     
   1.0000000000000000       0.66666667000000002        0.0000000000000000     
   1.0000000000000000       0.77777777999999997        0.0000000000000000     
   1.0000000000000000       0.88888889000000004        0.0000000000000000     
  0.88888889000000004        1.0000000000000000        0.0000000000000000     
  0.77777777999999997        1.0000000000000000        0.0000000000000000     
  0.66666667000000002        1.0000000000000000        0.0000000000000000     
  0.55555555999999995        1.0000000000000000        0.0000000000000000     
  0.44444444000000000        1.0000000000000000        0.0000000000000000     
  0.33333332999999998        1.0000000000000000        0.0000000000000000     
  0.22222222000000000        1.0000000000000000        0.0000000000000000     
  0.11111111000000000        1.0000000000000000        0.0000000000000000     
   0.0000000000000000       0.11111111000000000        0.0000000000000000     
   0.0000000000000000       0.22222222000000000        0.0000000000000000     
[...]
 CELL_DATA         354
 SCALARS C float
 LOOKUP_TABLE default
    0.74261425173676165468E+00
    0.11472423476991406854E+01
    0.51939518293695763340E+00
    0.59885904391487188025E+00
    0.85995714216665763985E+00
    0.97493834883952490422E+00
    0.12363367011703330078E+01
    0.11079782873853252223E+01
    0.13430426543696309949E+01
    0.14129495618974139415E+01
    0.14770902691782554772E+01
    0.14632936243250793673E+01
    0.14867663753120965442E+01
    0.14906434208280761045E+01
    0.14830598410434405743E+01
    0.14874768169732068834E+01
    0.14545752177970685537E+01
    0.14091394023181100792E+01
    0.12603972052816565519E+01
    0.13339707102315898624E+01
    0.12176090607521712350E+01
    0.12549187244210955328E+01
    0.13382872089735609045E+01
    0.12993244428793309098E+01
    0.13476308304531499083E+01
    0.13275164751888652859E+01
    0.12580811285185706794E+01
    0.12962133200888474871E+01
    0.11854734633516745834E+01
    0.10804020567632857119E+01
    0.85789508078049836470E+00
    0.97268295060652532058E+00
    0.74688089701121540553E+00
    0.63493795484175874488E+00
    0.52211417829465056606E+00
    0.56622752007802956697E+00
    0.51322303060288976262E+00
    0.52082913216785919897E+00
    0.56552738774074451378E+00
    0.53176039726579515943E+00
    0.58023476226447412429E+00
    0.58343786304282485577E+00
    0.60221686030076060359E+00
    0.58868324923632020518E+00
    0.59082321394374115453E+00
    0.54850125001681782066E+00
    0.52192753828236737590E+00
    0.53284375404399597631E+00
    0.51712198217706351056E+00
    0.50782230615553858311E+00
    0.54727718006988246291E+00
    0.52843880942924326138E+00
    0.78363726781819198486E+00
    0.80699453744339544325E+00
    0.88967267739150568406E+00
    0.84143911292702899818E+00
    0.89819727457937303949E+00
    0.86865733865074457043E+00
    0.81624691718778596972E+00
    0.84284502156859386623E+00
    0.76649925447801425804E+00
    0.68660248790435107757E+00
    0.57238227396337071351E+00
    0.62945823976067405425E+00
    0.53722152127264921617E+00
    0.50595336967354209712E+00
    0.53691611760778956697E+00
    0.51796096364678390067E+00
    0.14362211492722967154E+01
    0.14890143342185473418E+01
    0.14862622213986314001E+01
    0.14735925033685064456E+01
    0.14936085858771739332E+01
    0.14870406456829834418E+01
    0.14674013945669415193E+01
    0.14245946967640543690E+01
    0.14525129148567894610E+01
    0.14914309091495729920E+01
    0.12189037785831000615E+01
    0.13100614682570657088E+01
    0.10741449810525893760E+01
    0.11585516917153881877E+01
    0.13179104843551043835E+01
    0.11212691265272347607E+01
    0.14457166617444461298E+01
    0.13227100587683264798E+01
    0.11987643551102065143E+01
    0.14153343817710821728E+01
    0.14367329875711563059E+01
    0.13842374734343310116E+01
    0.12651852833451822100E+01
    0.11264891990249674691E+01
    0.10888452779659687497E+01
    0.91828974200965041153E+00
    0.88525597208495088175E+00
    0.98648161712045068228E+00
    0.11633866508416328411E+01
    0.14235522781951330806E+01
    0.14889123488348947610E+01
    0.14542962681702178429E+01
    0.14908274502867600031E+01
    0.14214972059708637087E+01
    0.14804245746137052464E+01
    0.14111844686402328364E+01
    0.14052219717472556049E+01
    0.12981123519030670632E+01
    0.12987379290206142457E+01
    0.14289122529499118652E+01
    0.12289763666868791514E+01
    0.11539040924675330047E+01
    0.89090309048495619493E+00
    0.11437029023791716043E+01
    0.99887165842841652008E+00
    0.98208981065857847703E+00
    0.13960588237545150658E+01
    0.11025889966715092250E+01
    0.12238799175239736261E+01
    0.13501546539356801269E+01
    0.13500001450746190734E+01
    0.11284361065056554008E+01
    0.12221900391982358780E+01
    0.70355171816234418625E+00
    0.81977297642853963477E+00
    0.62320702346803547034E+00
    0.84058435895387817460E+00
    0.91071406787808550920E+00
    0.63407652692205296319E+00
    0.68783431919962090273E+00
    0.11354399087917039779E+01
    0.12897628417668949297E+01
    0.10503272913830561386E+01
    0.13397800090872769019E+01
    0.12783979190555507799E+01
    0.10544784177616344234E+01
    0.11572037903616931853E+01
    0.14703975698580347142E+01
    0.14931730483036820267E+01
    0.14137615747206893069E+01
    0.14921531511862102803E+01
    0.14795953118541291804E+01
    0.14598579361231807106E+01
    0.14292208492925673191E+01
    0.58647645038958406971E+00
    0.56168432556438852021E+00
    0.51889709724421650971E+00
    0.67090680850076434005E+00
    0.65260451169784883252E+00
    0.52222065106776049959E+00
    0.52826115434335896293E+00
    0.14797420880150518041E+01
    0.14418727163848650275E+01
    0.13889512589801908948E+01
    0.14697190688410086690E+01
    0.13489374032539398485E+01
    0.14766551655467201609E+01
    0.14630520876917363360E+01
    0.14935003010353660180E+01
    0.14893667283805847035E+01
    0.14586731308961766729E+01
    0.14918710257100029626E+01
    0.13050761004239823659E+01
    0.14620025637162006316E+01
    0.14350317894109423378E+01
    0.14089508030245085912E+01
    0.13456751173926375653E+01
    0.75248400485747546362E+00
    0.87742563450871335906E+00
    0.75034332807326431514E+00
    0.86618128902861279972E+00
    0.93618316183467731317E+00
    0.14440476816869320942E+01
    0.14881530531853504051E+01
    0.14740315487223789592E+01
    0.14868369155032747919E+01
    0.14910421677032932308E+01
    0.11421734504908289676E+01
    0.12770866715597564145E+01
    0.13110915487954533099E+01
    0.11001915488103266583E+01
    0.12007378868768767699E+01
    0.14838774231558222727E+01
    0.14788064690120816813E+01
    0.14906775729522245832E+01
    0.14629830399476004832E+01
    0.14902955683325518343E+01
    0.10563887201990618259E+01
    0.12996836800184827787E+01
    0.11491305192486971354E+01
    0.11591337889348931611E+01
    0.12826442647364098004E+01
    0.14431686198776620955E+01
    0.14718183290423652032E+01
    0.14274686469267372502E+01
    0.14712322601998604199E+01
    0.13577900039851513725E+01
    0.73020875365040283089E+00
    0.99311359019730371944E+00
    0.83224264133166470092E+00
    0.79429028586901762043E+00
    0.93471785392317285890E+00
    0.71688393323753618613E+00
    0.63303655883954990102E+00
    0.73183837844062460398E+00
    0.63983097145912171122E+00
    0.81048061947012695061E+00
    0.12142224752213144345E+01
    0.14089717802482524256E+01
    0.13227966741659564764E+01
    0.14304407950712916264E+01
    0.14066471834917000372E+01
    0.13038262905768518429E+01
    0.12911151295339933220E+01
    0.14173510849750736718E+01
    0.13931360697154675510E+01
    0.14433903845869793248E+01
    0.14919600892762976407E+01
    0.14497581467451874371E+01
    0.14503448511384311459E+01
    0.14919459519007913784E+01
    0.12047494007284511586E+01
    0.11439518861084099211E+01
    0.11376572359127576917E+01
    0.13493464487187072365E+01
    0.10809299168054760099E+01
    0.12570750345746972698E+01
    0.63194206086515025689E+00
    0.68328839813862662922E+00
    0.83393177282024244512E+00
    0.81340456252232962164E+00
    0.82842825970378164424E+00
    0.95221496809253713955E+00
    0.97628295765732953093E+00
    0.10698181281990197800E+01
    0.12322073123374461812E+01
    0.13736202066989480208E+01
    0.13494202411265205921E+01
    0.14265414192119407755E+01
    0.14858982907904936255E+01
    0.14886880472618702065E+01
    0.13682944089440174373E+01
    0.14741736818911408413E+01
    0.13126688346158261744E+01
    0.10593589564451573182E+01
    0.11171032859294431905E+01
    0.14775889522567027257E+01
    0.14891717239162880482E+01
    0.79136034565752411130E+00
    0.65729936423518042776E+00
    0.60379095118340719850E+00
    0.12069053526460229442E+01
    0.10113319854100939477E+01
    0.98995968601250616814E+00
    0.14046351713510616399E+01
    0.14306289519375678942E+01
    0.12277135784045700717E+01
    0.14832438340416291833E+01
    0.14258220529084071337E+01
    0.14060883616074497660E+01
    0.98338372547186614359E+00
    0.10082350514502349537E+01
    0.74471398424202428501E+00
    0.14760922647917165129E+01
    0.14953986953486566591E+01
    0.14696374805183083367E+01
    0.69440761015720686711E+00
    0.66938859651596349654E+00
    0.54167342053003297853E+00
    0.64360843396934253047E+00
    0.56703009343662957864E+00
    0.52013719423934690056E+00
    0.14780554987015290802E+01
    0.13642747651014823784E+01
    0.14681484397360315963E+01
    0.14844314852892015466E+01
    0.12494105802442456721E+01
    0.14710863314222788478E+01
    0.14079306700081715142E+01
    0.13840205364688351608E+01
    0.97456605677767660367E+00
    0.13074161610312524662E+01
    0.12273008521043879959E+01
    0.10865675133775645200E+01
    0.14392035741894058098E+01
    0.14079172559317807423E+01
    0.12738607622782820439E+01
    0.14833727903778977097E+01
    0.14660080981428587066E+01
    0.92054557398080461006E+00
    0.10097544296439016076E+01
    0.55048446002660400556E+00
    0.58543778688804182231E+00
    0.13799771893835617309E+01
    0.13452428538014828963E+01
    0.50682381487092686978E+00
    0.50649895581544535084E+00
    0.13958591214891580279E+01
    0.10037959173190278417E+01
    0.99483151382070322821E+00
    0.14645688807100316620E+01
    0.77311469864080717418E+00
    0.13809205674945175257E+01
    0.13402643327790926264E+01
    0.85080437653023133215E+00
    0.14747056934493909530E+01
    0.13684805705804556908E+01
    0.14771937296914847693E+01
    0.12950585003403622952E+01
    0.14700944263833011227E+01
    0.77766048768874118657E+00
    0.87459276660445794960E+00
    0.12502723457118296579E+01
    0.14478319019067718010E+01
    0.14895671484690908848E+01
    0.10788667784148433526E+01
    0.14889262274247312412E+01
    0.14554505612139814197E+01
    0.12017380869187348491E+01
    0.98308604884757633258E+00
    0.72148302265939801003E+00
    0.65561403582928978739E+00
    0.11036669749819254527E+01
    0.10631993751650932190E+01
    0.51883575422503058761E+00
    0.51701191725823414380E+00
    0.63760629438415261649E+00
    0.62586572920261185349E+00
    0.97752625261801373568E+00
    0.12293765519709474177E+01
    0.13941836178369861887E+01
    0.14661965936411969214E+01
    0.14743451207074982356E+01
    0.14361593214151442410E+01
    0.13138594026116909852E+01
    0.11913918569927750557E+01
    0.12527659246848283914E+01
    0.12251921623653796445E+01
    0.11232390503312801311E+01
    0.94253294494231065759E+00
    0.73569429417698017915E+00
    0.56729592672486517380E+00
    0.50487139988224649656E+00
    0.52023439190479481287E+00
    0.53045142132677480795E+00
    0.52971179636523801904E+00
    0.51054435436177192376E+00
    0.50572669893622168580E+00
    0.53970077606028465933E+00
    0.73100461121831139533E+00
    0.77612958293078238015E+00
    0.75429889495245128206E+00
    0.69015436316124478822E+00
    0.59411969610969150857E+00
    0.52283117420507074780E+00
    0.52214037710310368112E+00
