# vtk DataFile Version 3.0
LAPLACIEN  2D
ASCII
DATASET UNSTRUCTURED_GRID
 POINTS         391  float
  0.50371505999999999       0.50367786999999997        0.0000000000000000     
  0.29013556000000001       0.29014535000000002        0.0000000000000000     
  0.70165584999999997       0.71206597999999999        0.0000000000000000     
  0.70304188999999995       0.30176619999999998        0.0000000000000000     
  0.30920671999999999       0.71149227999999998        0.0000000000000000     
  0.79044983999999996       0.49884783999999999        0.0000000000000000     
  0.49102621000000002       0.20968644000000000        0.0000000000000000     
  0.49912957000000002       0.77208717000000004        0.0000000000000000     
  0.21724072999999999       0.48989389000000000        0.0000000000000000     
  0.83255933999999998       0.83046598000000005        0.0000000000000000     
  0.16646774000000000       0.17015694000000001        0.0000000000000000     
  0.83054514999999995       0.16736480000000001        0.0000000000000000     
  0.16953130999999999       0.83265739000000005        0.0000000000000000     
  0.42166445000000002       0.36345201999999999        0.0000000000000000     
  0.64462200999999997       0.56347807999999999        0.0000000000000000     
  0.35324633999999999       0.56311191000000005        0.0000000000000000     
  0.65456411000000003       0.84856860999999995        0.0000000000000000     
  0.35141477999999998       0.15563974000000000        0.0000000000000000     
  0.15290967000000000       0.35206625000000003        0.0000000000000000     
  0.82942241000000005       0.34936866000000000        0.0000000000000000     
  0.84390527000000004       0.64441694999999999        0.0000000000000000     
  0.63699174999999997       0.14284276000000001        0.0000000000000000     
  0.15620682999999999       0.64648446999999998        0.0000000000000000     
  0.36426062999999997       0.85756310999999996        0.0000000000000000     
  0.63489340999999999       0.40519052000000000        0.0000000000000000     
  0.52518872999999999       0.65957078000000002        0.0000000000000000     
  0.32158959999999998       0.42298103999999997        0.0000000000000000     
  0.58861710000000000       0.31711036999999997        0.0000000000000000     
  0.42078418000000001       0.69497151999999995        0.0000000000000000     
  0.48608786999999998       0.89334152000000000        0.0000000000000000     
   9.7084320000000002E-002  0.50000000000000000        0.0000000000000000     
  0.90291568000000000       0.50000000000000000        0.0000000000000000     
  0.51392453000000005       0.10668648999999999        0.0000000000000000     
  0.59792566999999996       0.73122754000000001        0.0000000000000000     
  0.74510058999999995       0.41124730999999998        0.0000000000000000     
  0.73212551999999997       0.90191560000000004        0.0000000000000000     
   9.7784830000000003E-002  0.26957329000000002        0.0000000000000000     
  0.26711221000000002        9.8671499999999995E-002   0.0000000000000000     
  0.90191560000000004       0.26787448000000003        0.0000000000000000     
  0.90118569000000004       0.73039821000000005        0.0000000000000000     
  0.73122947000000005        9.8017859999999998E-002   0.0000000000000000     
   9.8084400000000002E-002  0.73212551999999997        0.0000000000000000     
  0.26957329000000002       0.90221516999999996        0.0000000000000000     
  0.39283522999999998       0.25360379000000000        0.0000000000000000     
  0.74480864000000002       0.60495284999999999        0.0000000000000000     
  0.25505132000000003       0.60593640999999998        0.0000000000000000     
  0.52159297999999998       0.40671636000000000        0.0000000000000000     
  0.40768852000000000       0.47699891000000000        0.0000000000000000     
   9.1467049999999994E-002   9.1876959999999994E-002   0.0000000000000000     
  0.90842484999999995       0.90819225000000003        0.0000000000000000     
  0.90820104999999995        9.1566729999999999E-002   0.0000000000000000     
   9.1807449999999999E-002  0.90843574000000005        0.0000000000000000     
  0.27098960000000000       0.20527094000000001        0.0000000000000000     
  0.73457293999999995       0.79835387000000002        0.0000000000000000     
  0.79817773000000003       0.25713470999999999        0.0000000000000000     
  0.20747797000000001       0.72863946000000002        0.0000000000000000     
  0.20175195000000001       0.27583914999999998        0.0000000000000000     
  0.79603889000000005       0.72159035000000005        0.0000000000000000     
  0.71761666000000002       0.19748431999999999        0.0000000000000000     
  0.28462607000000001       0.80251899999999998        0.0000000000000000     
  0.69134598999999997       0.49261972999999998        0.0000000000000000     
  0.44720578999999999       0.58582935999999997        0.0000000000000000     
  0.24242269999999999       0.37228174000000003        0.0000000000000000     
  0.38265623999999998       0.93072131999999996        0.0000000000000000     
  0.60971754000000000       0.91988369000000003        0.0000000000000000     
   7.9163609999999995E-002  0.60979116000000000        0.0000000000000000     
  0.92010649000000000       0.61081183999999999        0.0000000000000000     
  0.61954008999999999        7.1530830000000004E-002   0.0000000000000000     
  0.91882012999999996       0.38917363999999999        0.0000000000000000     
  0.39086346000000000        8.0652249999999995E-002   0.0000000000000000     
   7.9183480000000001E-002  0.38966213000000000        0.0000000000000000     
  0.59114111999999996       0.49294315000000000        0.0000000000000000     
  0.63337980999999999       0.64485914000000000        0.0000000000000000     
  0.50012352000000004       0.29676539000000002        0.0000000000000000     
  0.82552601000000003       0.92753492000000004        0.0000000000000000     
  0.92774772999999999       0.82498556999999995        0.0000000000000000     
   7.1970870000000006E-002  0.17510291000000000        0.0000000000000000     
  0.17422821999999999        7.2635640000000001E-002   0.0000000000000000     
  0.82510813000000005        7.2134840000000006E-002   0.0000000000000000     
  0.92754665000000003       0.17446275999999999        0.0000000000000000     
  0.17501022999999999       0.92789951999999998        0.0000000000000000     
   7.2464680000000004E-002  0.82554053000000005        0.0000000000000000     
  0.30731587999999999       0.50885354999999999        0.0000000000000000     
  0.59033407999999998       0.22171178999999999        0.0000000000000000     
  0.40109191999999999       0.78725542000000004        0.0000000000000000     
  0.35420917000000002       0.63754104000000000        0.0000000000000000     
  0.15983976999999999       0.56665573000000002        0.0000000000000000     
  0.84108459999999996       0.56757886999999996        0.0000000000000000     
  0.83902096000000004       0.43344338999999998        0.0000000000000000     
  0.43230028999999998       0.16004268999999999        0.0000000000000000     
  0.57536027999999995       0.83041363999999995        0.0000000000000000     
  0.15771898000000001       0.42747892999999998        0.0000000000000000     
  0.34021692999999997       0.34221559000000001        0.0000000000000000     
  0.56002271999999997       0.57501117999999996        0.0000000000000000     
  0.65344329000000001       0.78147597999999996        0.0000000000000000     
   0.0000000000000000        0.0000000000000000        0.0000000000000000     
   1.0000000000000000        0.0000000000000000        0.0000000000000000     
   1.0000000000000000        1.0000000000000000        0.0000000000000000     
   0.0000000000000000        1.0000000000000000        0.0000000000000000     
  0.11111111000000000        0.0000000000000000        0.0000000000000000     
  0.22222222000000000        0.0000000000000000        0.0000000000000000     
  0.33333332999999998        0.0000000000000000        0.0000000000000000     
  0.44444444000000000        0.0000000000000000        0.0000000000000000     
  0.55555555999999995        0.0000000000000000        0.0000000000000000     
  0.66666667000000002        0.0000000000000000        0.0000000000000000     
  0.77777777999999997        0.0000000000000000        0.0000000000000000     
  0.88888889000000004        0.0000000000000000        0.0000000000000000     
   1.0000000000000000       0.11111111000000000        0.0000000000000000     
   1.0000000000000000       0.22222222000000000        0.0000000000000000     
   1.0000000000000000       0.33333332999999998        0.0000000000000000     
   1.0000000000000000       0.44444444000000000        0.0000000000000000     
   1.0000000000000000       0.55555555999999995        0.0000000000000000     
   1.0000000000000000       0.66666667000000002        0.0000000000000000     
   1.0000000000000000       0.77777777999999997        0.0000000000000000     
   1.0000000000000000       0.88888889000000004        0.0000000000000000     
  0.88888889000000004        1.0000000000000000        0.0000000000000000     
  0.77777777999999997        1.0000000000000000        0.0000000000000000     
  0.66666667000000002        1.0000000000000000        0.0000000000000000     
  0.55555555999999995        1.0000000000000000        0.0000000000000000     
  0.44444444000000000        1.0000000000000000        0.0000000000000000     
  0.33333332999999998        1.0000000000000000        0.0000000000000000     
  0.22222222000000000        1.0000000000000000        0.0000000000000000     
  0.11111111000000000        1.0000000000000000        0.0000000000000000     
   0.0000000000000000       0.11111111000000000        0.0000000000000000     
   0.0000000000000000       0.22222222000000000        0.0000000000000000     
[...]
 CELL_DATA         354
 SCALARS C float
 LOOKUP_TABLE default
    0.89523561091276859791E+00
    0.11302415330400958915E+01
    0.70195330027989943922E+00
    0.73698376371108964555E+00
    0.98549542196570494301E+00
    0.10552901284359594847E+01
    0.11586568795719314195E+01
    0.11154111496169876183E+01
    0.11909573938266131421E+01
    0.11888713150777794336E+01
    0.11680862048486533311E+01
    0.11857747079688256697E+01
    0.11626785238047827598E+01
    0.11637516417713693606E+01
    0.11708183958351283671E+01
    0.11653316907427546667E+01
    0.11730444819619405550E+01
    0.11878144055391468559E+01
    0.11971523562664294627E+01
    0.11918925176546302236E+01
    0.11733653355993627354E+01
    0.11782394178379622662E+01
    0.11942715122824818508E+01
    0.11828788106370791144E+01
    0.11941404803997401896E+01
    0.11911281642705433548E+01
    0.11928390981505949675E+01
    0.11975902685686832250E+01
    0.11542289372944887216E+01
    0.11135745868108897216E+01
    0.98049345737917159571E+00
    0.10582382047132345981E+01
    0.89869222365104728389E+00
    0.81206853174408344387E+00
    0.71408072239623532340E+00
    0.75360460128186523843E+00
    0.70317582357100338886E+00
    0.71133149558209685104E+00
    0.75270752304936427990E+00
    0.72401564356782954768E+00
    0.76430374447843640873E+00
    0.76749076898692525361E+00
    0.78273447934559525763E+00
    0.77240394437330395228E+00
    0.77412242663887442795E+00
    0.73966316116565722361E+00
    0.71294625880132012075E+00
    0.72344272683863275475E+00
    0.70484371217309771396E+00
    0.69158053498070770626E+00
    0.70685383207060614730E+00
    0.69767829787138946340E+00
    0.92822369452807373946E+00
    0.94694789611665097784E+00
    0.10081540843220997417E+01
    0.97275911168510020843E+00
    0.10103681544165392658E+01
    0.98896195778479167871E+00
    0.95158602902046030003E+00
    0.97189128781177958061E+00
    0.91313234905711981870E+00
    0.85198755776834933506E+00
    0.75841433538884184262E+00
    0.80524903001914127643E+00
    0.72694229986472258531E+00
    0.69653096059407793028E+00
    0.69993296766342416593E+00
    0.69519080187578685681E+00
    0.11478707577671141138E+01
    0.11736064078852077586E+01
    0.11841724465739758010E+01
    0.11600431826801369528E+01
    0.11802547594159409350E+01
    0.11729839530139480885E+01
    0.11999161846433963330E+01
    0.12026310967016007325E+01
    0.12048032784546902629E+01
    0.11857372552338696359E+01
    0.11849229553373106238E+01
    0.12043449822895775370E+01
    0.11138283781053097687E+01
    0.11511113238829628891E+01
    0.12115962833115649921E+01
    0.11348914277608472823E+01
    0.11578926862653997620E+01
    0.11251584766586220088E+01
    0.10274652159921220385E+01
    0.11534910558386932689E+01
    0.11500150549764276420E+01
    0.11464655455615926360E+01
    0.10896482368407989227E+01
    0.11501513227005726314E+01
    0.11200723458122603393E+01
    0.10154610626242903670E+01
    0.10013013082002477638E+01
    0.10616228402487859483E+01
    0.11729834930107805313E+01
    0.12078178633222218519E+01
    0.11759142517671956618E+01
    0.12000376477887857440E+01
    0.11855692949821303728E+01
    0.12039777618636295919E+01
    0.12029297449874860604E+01
    0.11416868477179171748E+01
    0.11396837327815603214E+01
    0.11107838749495073660E+01
    0.11117497136679885816E+01
    0.11373446588338160801E+01
    0.11814754093400081647E+01
    0.11477402644890308814E+01
    0.10085478037052628686E+01
    0.11439102702962034019E+01
    0.10667262761588505171E+01
    0.10538259578154967055E+01
    0.12003027541836104319E+01
    0.11345234591473332131E+01
    0.11949746631112687645E+01
    0.12096403799100139409E+01
    0.12201526851353057257E+01
    0.11367791752017624152E+01
    0.11991409726420407811E+01
    0.86491383712255898164E+00
    0.95236986976678661421E+00
    0.80150891334920137954E+00
    0.96914143004653219293E+00
    0.10200631576288001767E+01
    0.80855232050188985404E+00
    0.85239483443892372083E+00
    0.11425283602793729898E+01
    0.12010127715388203562E+01
    0.11045857087350017256E+01
    0.12146040412436320821E+01
    0.12112140890257476755E+01
    0.11008736352677748194E+01
    0.11525744241044484362E+01
    0.12018813668406049810E+01
    0.11812771271343662782E+01
    0.11991507498097540019E+01
    0.11846415712270639276E+01
    0.11673881132231045399E+01
    0.11941022629420001699E+01
    0.12003261293083706818E+01
    0.77105805613996669656E+00
    0.75017673379015348267E+00
    0.70867295721885747994E+00
    0.83977623110032229015E+00
    0.82542050356024199154E+00
    0.71341084275199839748E+00
    0.71971229782969758926E+00
    0.11683958437267978336E+01
    0.11461970644505583561E+01
    0.11450453120583894417E+01
    0.11605632499550042613E+01
    0.11267483244177372015E+01
    0.11585353611619253478E+01
    0.12016682459270573435E+01
    0.11851538394187419723E+01
    0.11715241771556998973E+01
    0.12024403716903486750E+01
    0.11921988472759696975E+01
    0.12019469005233718306E+01
    0.11866535481708642141E+01
    0.11969733007276270875E+01
    0.12045140987971123536E+01
    0.12160927232824079169E+01
    0.90491338807792298660E+00
    0.99822491611996999605E+00
    0.90473698722306294950E+00
    0.98738718394437752224E+00
    0.10383086108244383716E+01
    0.11955807765528394526E+01
    0.11694366498915129693E+01
    0.11963811463932652046E+01
    0.11930567037778165851E+01
    0.11692213498154067075E+01
    0.11546603801470747275E+01
    0.12066410900778292703E+01
    0.12079912812519895127E+01
    0.11350356125533103135E+01
    0.11794126252688716949E+01
    0.11729060475153036958E+01
    0.12007055901753984628E+01
    0.11825163842246126933E+01
    0.12027562462948067079E+01
    0.11986024097196037452E+01
    0.11114703276187154479E+01
    0.12041578747217258627E+01
    0.11466589515857179560E+01
    0.11705398245403393354E+01
    0.12025005744628174398E+01
    0.11406022379933942190E+01
    0.11528824256838139384E+01
    0.11369187472468123001E+01
    0.11476195243557496539E+01
    0.11105004028438740793E+01
    0.88836482140803885166E+00
    0.10686128658801803404E+01
    0.96203746291998559759E+00
    0.93798920628957693779E+00
    0.10292997851295275780E+01
    0.87328316086534307772E+00
    0.81163282027448768741E+00
    0.88800717320229005658E+00
    0.81569480750816825143E+00
    0.94518218161557432389E+00
    0.10521100017014353156E+01
    0.11523485818086427468E+01
    0.11258386051944520023E+01
    0.11495122125542152069E+01
    0.11481918753745168349E+01
    0.12028772264470579678E+01
    0.12025568371315344951E+01
    0.12060694505749509631E+01
    0.12075765700811980086E+01
    0.11975393212291278733E+01
    0.11846603369692416674E+01
    0.12056504964991250350E+01
    0.12013598094475592681E+01
    0.11871179999678962425E+01
    0.10362943004469906683E+01
    0.99031056000873174394E+00
    0.98432301862885862587E+00
    0.12069724292763424067E+01
    0.11103974681674044778E+01
    0.12081333933476903209E+01
    0.80857272730537488314E+00
    0.84999325372925760291E+00
    0.96484831212773225495E+00
    0.94931282514302250952E+00
    0.96241021988766695117E+00
    0.10458944365536022580E+01
    0.10504912797676282388E+01
    0.11247643933480540035E+01
    0.11938789631901660648E+01
    0.12229925427829990703E+01
    0.12214529114613283944E+01
    0.12103295954164887682E+01
    0.11550092061033727653E+01
    0.11678240679304943139E+01
    0.11237903216932476624E+01
    0.11533229906987201296E+01
    0.12118710569891035789E+01
    0.11060728329058941988E+01
    0.11391196856764123080E+01
    0.11660208650259848984E+01
    0.11811604852803005983E+01
    0.93293197607085576184E+00
    0.83056369680536756839E+00
    0.78515668714372111037E+00
    0.11844161014707355051E+01
    0.10801221458623242455E+01
    0.10589420081106095672E+01
    0.12155770725592678350E+01
    0.11966377616764571901E+01
    0.11706680920791048273E+01
    0.11931415962023974586E+01
    0.12073724886049983507E+01
    0.12041496093043595472E+01
    0.10624021494152107170E+01
    0.10873379659999287128E+01
    0.89626194771421241470E+00
    0.11595106625567996872E+01
    0.11631246696231780646E+01
    0.11804944541571227301E+01
    0.85883068672794538045E+00
    0.83999910668170818528E+00
    0.73167310793715734096E+00
    0.81839366158172799359E+00
    0.75647167279475968638E+00
    0.71102327522829111839E+00
    0.11773371879984866339E+01
    0.11238983145609826586E+01
    0.11532272383053816522E+01
    0.11621022521279900097E+01
    0.11805315256682520353E+01
    0.11910747817696030193E+01
    0.12121511571195171530E+01
    0.12094477582925282633E+01
    0.10538845526785438622E+01
    0.12071247191546590205E+01
    0.12000946533805716410E+01
    0.11162980788638579011E+01
    0.11507256964395142784E+01
    0.11462831079113355859E+01
    0.10938656454204669366E+01
    0.11865986411099394005E+01
    0.11892648066434858833E+01
    0.10282588263242855575E+01
    0.10781327608059985135E+01
    0.74113421427975301192E+00
    0.77139575592322895403E+00
    0.12083531649480869774E+01
    0.12114443524597680035E+01
    0.68984449561607830148E+00
    0.69268607730556486235E+00
    0.12192774240590158463E+01
    0.10730844556550387381E+01
    0.10719450914732013835E+01
    0.11577255673709752060E+01
    0.92020332164844154121E+00
    0.12120305170405141215E+01
    0.11267489170426669975E+01
    0.97551222285190652972E+00
    0.11624731468666682499E+01
    0.12103033728519134726E+01
    0.11965526427142660904E+01
    0.12023165543893661322E+01
    0.11954723615483691113E+01
    0.92382992460805868351E+00
    0.99722792102845203566E+00
    0.12005576483845912250E+01
    0.12145741457508736350E+01
    0.11704311116697267980E+01
    0.11247043791315480821E+01
    0.11703119163278601356E+01
    0.12019543573734206010E+01
    0.10550535884801370834E+01
    0.10669155757907549109E+01
    0.87993372550612780625E+00
    0.82694506662812883313E+00
    0.11425399872400854306E+01
    0.11043768315135131797E+01
    0.69862714597540875872E+00
    0.69312481729933794750E+00
    0.75923505071790942100E+00
    0.75007280183997060430E+00
    0.10593032206968762132E+01
    0.11979685104829969067E+01
    0.12576333710063651861E+01
    0.12649393411858098624E+01
    0.12621449841715790541E+01
    0.12615074643501860141E+01
    0.12373563403117766590E+01
    0.11848192326990527601E+01
    0.12183927841070731901E+01
    0.12044503993399606756E+01
    0.11481675491611056383E+01
    0.10393408409149971217E+01
    0.88970730206607639978E+00
    0.75370590439720275278E+00
    0.69429085676164326024E+00
    0.71261840846524449056E+00
    0.72309282622462811574E+00
    0.72181178703707349342E+00
    0.70286217087782343338E+00
    0.69109514944147321103E+00
    0.70330574433004511281E+00
    0.88728162206144745028E+00
    0.92217671147273161392E+00
    0.90563458539773500355E+00
    0.85500367389968112697E+00
    0.77756822089261390385E+00
    0.71337281452735457066E+00
    0.69674046156937996521E+00
