# vtk DataFile Version 3.0
LAPLACIEN  2D
ASCII
DATASET UNSTRUCTURED_GRID
 POINTS         391  float
  0.50371505999999999       0.50367786999999997        0.0000000000000000     
  0.29013556000000001       0.29014535000000002        0.0000000000000000     
  0.70165584999999997       0.71206597999999999        0.0000000000000000     
  0.70304188999999995       0.30176619999999998        0.0000000000000000     
  0.30920671999999999       0.71149227999999998        0.0000000000000000     
  0.79044983999999996       0.49884783999999999        0.0000000000000000     
  0.49102621000000002       0.20968644000000000        0.0000000000000000     
  0.49912957000000002       0.77208717000000004        0.0000000000000000     
  0.21724072999999999       0.48989389000000000        0.0000000000000000     
  0.83255933999999998       0.83046598000000005        0.0000000000000000     
  0.16646774000000000       0.17015694000000001        0.0000000000000000     
  0.83054514999999995       0.16736480000000001        0.0000000000000000     
  0.16953130999999999       0.83265739000000005        0.0000000000000000     
  0.42166445000000002       0.36345201999999999        0.0000000000000000     
  0.64462200999999997       0.56347807999999999        0.0000000000000000     
  0.35324633999999999       0.56311191000000005        0.0000000000000000     
  0.65456411000000003       0.84856860999999995        0.0000000000000000     
  0.35141477999999998       0.15563974000000000        0.0000000000000000     
  0.15290967000000000       0.35206625000000003        0.0000000000000000     
  0.82942241000000005       0.34936866000000000        0.0000000000000000     
  0.84390527000000004       0.64441694999999999        0.0000000000000000     
  0.63699174999999997       0.14284276000000001        0.0000000000000000     
  0.15620682999999999       0.64648446999999998        0.0000000000000000     
  0.36426062999999997       0.85756310999999996        0.0000000000000000     
  0.63489340999999999       0.40519052000000000        0.0000000000000000     
  0.52518872999999999       0.65957078000000002        0.0000000000000000     
  0.32158959999999998       0.42298103999999997        0.0000000000000000     
  0.58861710000000000       0.31711036999999997        0.0000000000000000     
  0.42078418000000001       0.69497151999999995        0.0000000000000000     
  0.48608786999999998       0.89334152000000000        0.0000000000000000     
   9.7084320000000002E-002  0.50000000000000000        0.0000000000000000     
  0.90291568000000000       0.50000000000000000        0.0000000000000000     
  0.51392453000000005       0.10668648999999999        0.0000000000000000     
  0.59792566999999996       0.73122754000000001        0.0000000000000000     
  0.74510058999999995       0.41124730999999998        0.0000000000000000     
  0.73212551999999997       0.90191560000000004        0.0000000000000000     
   9.7784830000000003E-002  0.26957329000000002        0.0000000000000000     
  0.26711221000000002        9.8671499999999995E-002   0.0000000000000000     
  0.90191560000000004       0.26787448000000003        0.0000000000000000     
  0.90118569000000004       0.73039821000000005        0.0000000000000000     
  0.73122947000000005        9.8017859999999998E-002   0.0000000000000000     
   9.8084400000000002E-002  0.73212551999999997        0.0000000000000000     
  0.26957329000000002       0.90221516999999996        0.0000000000000000     
  0.39283522999999998       0.25360379000000000        0.0000000000000000     
  0.74480864000000002       0.60495284999999999        0.0000000000000000     
  0.25505132000000003       0.60593640999999998        0.0000000000000000     
  0.52159297999999998       0.40671636000000000        0.0000000000000000     
  0.40768852000000000       0.47699891000000000        0.0000000000000000     
   9.1467049999999994E-002   9.1876959999999994E-002   0.0000000000000000     
  0.90842484999999995       0.90819225000000003        0.0000000000000000     
  0.90820104999999995        9.1566729999999999E-002   0.0000000000000000     
   9.1807449999999999E-002  0.90843574000000005        0.0000000000000000     
  0.27098960000000000       0.20527094000000001        0.0000000000000000     
  0.73457293999999995       0.79835387000000002        0.0000000000000000     
  0.79817773000000003       0.25713470999999999        0.0000000000000000     
  0.20747797000000001       0.72863946000000002        0.0000000000000000     
  0.20175195000000001       0.27583914999999998        0.0000000000000000     
  0.79603889000000005       0.72159035000000005        0.0000000000000000     
  0.71761666000000002       0.19748431999999999        0.0000000000000000     
  0.28462607000000001       0.80251899999999998        0.0000000000000000     
  0.69134598999999997       0.49261972999999998        0.0000000000000000     
  0.44720578999999999       0.58582935999999997        0.0000000000000000     
  0.24242269999999999       0.37228174000000003        0.0000000000000000     
  0.38265623999999998       0.93072131999999996        0.0000000000000000     
  0.60971754000000000       0.91988369000000003        0.0000000000000000     
   7.9163609999999995E-002  0.60979116000000000        0.0000000000000000     
  0.92010649000000000       0.61081183999999999        0.0000000000000000     
  0.61954008999999999        7.1530830000000004E-002   0.0000000000000000     
  0.91882012999999996       0.38917363999999999        0.0000000000000000     
  0.39086346000000000        8.0652249999999995E-002   0.0000000000000000     
   7.9183480000000001E-002  0.38966213000000000        0.0000000000000000     
  0.59114111999999996       0.49294315000000000        0.0000000000000000     
  0.63337980999999999       0.64485914000000000        0.0000000000000000     
  0.50012352000000004       0.29676539000000002        0.0000000000000000     
  0.82552601000000003       0.92753492000000004        0.0000000000000000     
  0.92774772999999999       0.82498556999999995        0.0000000000000000     
   7.1970870000000006E-002  0.17510291000000000        0.0000000000000000     
  0.17422821999999999        7.2635640000000001E-002   0.0000000000000000     
  0.82510813000000005        7.2134840000000006E-002   0.0000000000000000     
  0.92754665000000003       0.17446275999999999        0.0000000000000000     
  0.17501022999999999       0.92789951999999998        0.0000000000000000     
   7.2464680000000004E-002  0.82554053000000005        0.0000000000000000     
  0.30731587999999999       0.50885354999999999        0.0000000000000000     
  0.59033407999999998       0.22171178999999999        0.0000000000000000     
  0.40109191999999999       0.78725542000000004        0.0000000000000000     
  0.35420917000000002       0.63754104000000000        0.0000000000000000     
  0.15983976999999999       0.56665573000000002        0.0000000000000000     
  0.84108459999999996       0.56757886999999996        0.0000000000000000     
  0.83902096000000004       0.43344338999999998        0.0000000000000000     
  0.43230028999999998       0.16004268999999999        0.0000000000000000     
  0.57536027999999995       0.83041363999999995        0.0000000000000000     
  0.15771898000000001       0.42747892999999998        0.0000000000000000     
  0.34021692999999997       0.34221559000000001        0.0000000000000000     
  0.56002271999999997       0.57501117999999996        0.0000000000000000     
  0.65344329000000001       0.78147597999999996        0.0000000000000000     
   0.0000000000000000        0.0000000000000000        0.0000000000000000     
   1.0000000000000000        0.0000000000000000        0.0000000000000000     
   1.0000000000000000        1.0000000000000000        0.0000000000000000     
   0.0000000000000000        1.0000000000000000        0.0000000000000000     
  0.11111111000000000        0.0000000000000000        0.0000000000000000     
  0.22222222000000000        0.0000000000000000        0.0000000000000000     
  0.33333332999999998        0.0000000000000000        0.0000000000000000     
  0.44444444000000000        0.0000000000000000        0.0000000000000000     
  0.55555555999999995        0.0000000000000000        0.0000000000000000     
  0.66666667000000002        0.0000000000000000        0.0000000000000000     
  0.77777777999999997        0.0000000000000000        0.0000000000000000     
  0.88888889000000004        0.0000000000000000        0.0000000000000000     
   1.0000000000000000       0.11111111000000000        0.0000000000000000     
   1.0000000000000000       0.22222222000000000        0.0000000000000000     
   1.0000000000000000       0.33333332999999998        0.0000000000000000     
   1.0000000000000000       0.44444444000000000        0.0000000000000000     
   1.0000000000000000       0.55555555999999995        0.0000000000000000     
   1.0000000000000000       0.66666667000000002        0.0000000000000000     
   1.0000000000000000       0.77777777999999997        0.0000000000000000     
   1.0000000000000000       0.88888889000000004        0.0000000000000000     
  0.88888889000000004        1.0000000000000000        0.0000000000000000     
  0.77777777999999997        1.0000000000000000        0.0000000000000000     
  0.66666667000000002        1.0000000000000000        0.0000000000000000     
  0.55555555999999995        1.0000000000000000        0.0000000000000000     
  0.44444444000000000        1.0000000000000000        0.0000000000000000     
  0.33333332999999998        1.0000000000000000        0.0000000000000000     
  0.22222222000000000        1.0000000000000000        0.0000000000000000     
  0.11111111000000000        1.0000000000000000        0.0000000000000000     
   0.0000000000000000       0.11111111000000000        0.0000000000000000     
   0.0000000000000000       0.22222222000000000        0.0000000000000000     
[...]
 CELL_DATA         354
 SCALARS C float
 LOOKUP_TABLE default
    0.89954556648539929498E+00
    0.11307870436637115219E+01
    0.70733592342875650782E+00
    0.74125752590090887573E+00
    0.98889493229314340272E+00
    0.10567732975211472368E+01
    0.11608419217774605947E+01
    0.11167675738491258386E+01
    0.11924429381647760895E+01
    0.11898976541319590261E+01
    0.11689011844261363304E+01
    0.11866416028286701501E+01
    0.11632370103267750672E+01
    0.11644396745032432605E+01
    0.11716038114809514958E+01
    0.11661333939544356042E+01
    0.11741138108429638454E+01
    0.11888468472125452990E+01
    0.11992558658849548081E+01
    0.11938483215499371415E+01
    0.11744068700105385616E+01
    0.11797412606306054705E+01
    0.11955418868859748471E+01
    0.11837513645064645651E+01
    0.11953312687372634748E+01
    0.11923356825158291095E+01
    0.11941471330208714985E+01
    0.11993349080887167890E+01
    0.11548364005919748987E+01
    0.11146529323645348875E+01
    0.98365929959093700852E+00
    0.10598563923106145701E+01
    0.90297627253772982936E+00
    0.81715866560592442802E+00
    0.71968007931536537303E+00
    0.75904376430665743136E+00
    0.70876851862589818065E+00
    0.71688639348513072402E+00
    0.75811468755275490672E+00
    0.72960648513573478358E+00
    0.76953471815220308994E+00
    0.77273902848567355139E+00
    0.78785932551708437455E+00
    0.77764583823623012471E+00
    0.77939194589032101401E+00
    0.74518836709372293647E+00
    0.71846470952151553213E+00
    0.72892855783991983287E+00
    0.71032378494374748268E+00
    0.69704529763521083652E+00
    0.71165836912551860838E+00
    0.70265931516359303455E+00
    0.93228941653984931381E+00
    0.95086692662237126683E+00
    0.10113404809807255980E+01
    0.97633936821004163598E+00
    0.10131143142166638693E+01
    0.99197858126105398213E+00
    0.95527001502758945861E+00
    0.97537769592485124015E+00
    0.91721531280493207028E+00
    0.85664488737790145390E+00
    0.76370663000232219542E+00
    0.81023928825005464560E+00
    0.73244678701561094503E+00
    0.70214471703132741442E+00
    0.70468028507394886439E+00
    0.70039201634160141996E+00
    0.11481605894765136711E+01
    0.11741817301027062115E+01
    0.11850688276675676036E+01
    0.11602356343227788749E+01
    0.11812029110889130656E+01
    0.11738095052645789451E+01
    0.12009355633826019893E+01
    0.12034590921072187975E+01
    0.12054951955907990957E+01
    0.11864792233273226962E+01
    0.11877264760314782954E+01
    0.12064693224248232983E+01
    0.11145763317791217428E+01
    0.11531352836712573939E+01
    0.12140146017876709550E+01
    0.11359579664644834374E+01
    0.11583550025610005463E+01
    0.11256707089179751602E+01
    0.10253974366848765953E+01
    0.11544008949424124921E+01
    0.11503001592265520436E+01
    0.11474425787639803698E+01
    0.10893392003976611893E+01
    0.11521056242037239770E+01
    0.11219447770078430082E+01
    0.10177360491246330021E+01
    0.10045621719238608804E+01
    0.10631354106616612842E+01
    0.11766010899572099113E+01
    0.12088230414436542670E+01
    0.11768223851030072957E+01
    0.12008905471775617180E+01
    0.11864856123864755411E+01
    0.12046701998270661349E+01
    0.12039282267432696027E+01
    0.11423040738419234508E+01
    0.11402165922765945538E+01
    0.11118737194475019070E+01
    0.11130839255096587337E+01
    0.11375899732519862972E+01
    0.11845135748972697165E+01
    0.11495687078157887928E+01
    0.10119976226475011494E+01
    0.11456896234335234297E+01
    0.10684662381072405068E+01
    0.10554944050099419606E+01
    0.12013898591871194910E+01
    0.11359666607503919877E+01
    0.11979977011642632956E+01
    0.12115943546588274771E+01
    0.12222586850850978291E+01
    0.11374694489050007906E+01
    0.12024391073852216394E+01
    0.86951397758837001284E+00
    0.95603159312684748983E+00
    0.80670229380922731099E+00
    0.97277637937190142292E+00
    0.10230881019543485166E+01
    0.81353107644246036578E+00
    0.85709190220715214537E+00
    0.11436817756738784091E+01
    0.12035020611280153879E+01
    0.11058340185517188115E+01
    0.12167780984468752337E+01
    0.12138741576338201167E+01
    0.11010000680934179940E+01
    0.11545875978973267895E+01
    0.12026293386947100039E+01
    0.11819901506504990607E+01
    0.12001764509738439557E+01
    0.11854404057215632839E+01
    0.11680026198328690157E+01
    0.11948677957077449285E+01
    0.12009712472798621530E+01
    0.77635771624782090594E+00
    0.75559201789772945101E+00
    0.71423544748258249726E+00
    0.84468793538407371813E+00
    0.83042502204409096578E+00
    0.71894965132127786056E+00
    0.72524745366868148544E+00
    0.11689754685988835714E+01
    0.11461809610664885906E+01
    0.11460964967684807991E+01
    0.11608906388914510543E+01
    0.11279112232725025944E+01
    0.11588929435424140113E+01
    0.12024325693338266952E+01
    0.11859892951312895892E+01
    0.11724005437523206119E+01
    0.12031525242682983290E+01
    0.11932942636242889201E+01
    0.12039364016240863275E+01
    0.11874949130811969233E+01
    0.11977834769029831463E+01
    0.12051324871965871655E+01
    0.12183544869359559382E+01
    0.90941525862845729034E+00
    0.10018306462809778434E+01
    0.90935693212260038099E+00
    0.99086382034846398614E+00
    0.10411805046932687269E+01
    0.11963040980572543504E+01
    0.11701323603639215420E+01
    0.11972816972155690962E+01
    0.11936976616588348410E+01
    0.11697146088942613762E+01
    0.11565466938304798106E+01
    0.12093200613255215004E+01
    0.12102786090946278108E+01
    0.11365976747526644886E+01
    0.11820144349755117297E+01
    0.11733923849989900123E+01
    0.12012784474640787469E+01
    0.11831384965011286781E+01
    0.12034067462050186403E+01
    0.11995858014058420338E+01
    0.11129129936052655214E+01
    0.12065274888173540546E+01
    0.11485086143020293292E+01
    0.11729127470568629921E+01
    0.12049780534421072886E+01
    0.11404903097894589781E+01
    0.11532099979309744509E+01
    0.11367278736059911459E+01
    0.11479412201130858584E+01
    0.11106701997425811879E+01
    0.89307405775576909068E+00
    0.10701141667439435512E+01
    0.96566874703575633632E+00
    0.94229523307579754476E+00
    0.10314715562126037796E+01
    0.87761207930646190079E+00
    0.81687695589775821681E+00
    0.89249413450235881573E+00
    0.82074679415910134495E+00
    0.94889525891684745051E+00
    0.10516141237669103248E+01
    0.11533767699542307739E+01
    0.11266191545821684361E+01
    0.11498617598899649739E+01
    0.11491754897259962576E+01
    0.12052002205106269184E+01
    0.12048891459212711652E+01
    0.12070480861862233901E+01
    0.12084718223064214726E+01
    0.11982482009487518404E+01
    0.11853450054877943121E+01
    0.12064044135284126558E+01
    0.12019440194631680896E+01
    0.11878312088068010421E+01
    0.10347475745728651475E+01
    0.98726827680312712054E+00
    0.98114428996977709474E+00
    0.12089353919406522486E+01
    0.11105618341441514385E+01
    0.12114433797316628283E+01
    0.81362197792950485820E+00
    0.85477390828530186440E+00
    0.96851888432908717075E+00
    0.95320008904629971447E+00
    0.96624395242919602911E+00
    0.10480702726591708540E+01
    0.10518325227380631581E+01
    0.11271534221871957193E+01
    0.11960152292345787028E+01
    0.12243275936188440234E+01
    0.12232684484024436422E+01
    0.12110939165458747269E+01
    0.11554598747958966243E+01
    0.11686638795503243582E+01
    0.11246836999789413536E+01
    0.11535679886489542678E+01
    0.12143344345413829011E+01
    0.11068572575657735779E+01
    0.11406608725820388539E+01
    0.11663635090842920938E+01
    0.11821495831058916881E+01
    0.93707842415865016950E+00
    0.83559774619108317939E+00
    0.79036199251023175893E+00
    0.11874328340702582363E+01
    0.10814304344984608797E+01
    0.10599481043444558548E+01
    0.12168683450752164621E+01
    0.11975009773287439430E+01
    0.11730795942158744882E+01
    0.11940802835217076971E+01
    0.12080462380785048637E+01
    0.12049924768401552022E+01
    0.10643798553946257623E+01
    0.10894687863995276000E+01
    0.90056513496492884840E+00
    0.11599256631189400757E+01
    0.11639148365805895846E+01
    0.11814339720683033619E+01
    0.86363082745888919423E+00
    0.84498403309086411728E+00
    0.73716953350898761776E+00
    0.82347836598762880200E+00
    0.76198663721929327242E+00
    0.71653970713303349882E+00
    0.11784373913906025511E+01
    0.11245791320136453439E+01
    0.11534196743453570821E+01
    0.11624769779764174693E+01
    0.11830361152977002526E+01
    0.11921170701862497943E+01
    0.12129473587695311920E+01
    0.12106899960176371600E+01
    0.10555303325483771371E+01
    0.12092825319257207717E+01
    0.12035489033206832055E+01
    0.11177108411320060277E+01
    0.11512531341026785991E+01
    0.11470468992551690057E+01
    0.10936768914795049756E+01
    0.11874299738991005437E+01
    0.11900702365592743526E+01
    0.10309378690593407057E+01
    0.10799462544356321914E+01
    0.74668897895573238532E+00
    0.77683152346806083610E+00
    0.12099666350663711434E+01
    0.12131976620617974660E+01
    0.69512579933130069776E+00
    0.69810181175228369632E+00
    0.12206360684604338207E+01
    0.10749958335803957432E+01
    0.10737259582127467450E+01
    0.11579738581825367305E+01
    0.92448345291296374349E+00
    0.12132882770501818293E+01
    0.11280088304363444784E+01
    0.97891346216152297366E+00
    0.11627492034079258687E+01
    0.12121788668984818660E+01
    0.11974718124929344398E+01
    0.12047878670901077669E+01
    0.11963550395777144963E+01
    0.92814598344606846769E+00
    0.10008226941549742683E+01
    0.12033716357320256574E+01
    0.12152845887859493601E+01
    0.11710688490515097637E+01
    0.11264080960151972022E+01
    0.11712589412669462963E+01
    0.12027428772452353201E+01
    0.10540280707109865865E+01
    0.10689359089058259045E+01
    0.88447401423954630229E+00
    0.83173883402892312411E+00
    0.11446721812553954933E+01
    0.11054310453668199088E+01
    0.70391947761901196845E+00
    0.69835467225194236551E+00
    0.76312818551287486812E+00
    0.75383404882046778361E+00
    0.10609610666653086497E+01
    0.11995433692236960876E+01
    0.12576939732785283876E+01
    0.12644790150974718479E+01
    0.12615980432488074214E+01
    0.12613533163768477774E+01
    0.12383580463731731491E+01
    0.11860043738442089811E+01
    0.12197423725817504447E+01
    0.12058170104997645300E+01
    0.11493731397670396976E+01
    0.10412908431908194373E+01
    0.89396301268023992126E+00
    0.75909447189471146444E+00
    0.69981078261060736256E+00
    0.71814736563538716929E+00
    0.72861224794215662115E+00
    0.72731176107684081256E+00
    0.70842774904905569944E+00
    0.69652606313791953774E+00
    0.70826258167473343796E+00
    0.89158748875140858559E+00
    0.92612126083727386305E+00
    0.90975394555353239490E+00
    0.85956518211182442180E+00
    0.78276508465671668091E+00
    0.71886712430633126214E+00
    0.70193597683167641144E+00
