# vtk DataFile Version 3.0
LAPLACIEN  2D
ASCII
DATASET UNSTRUCTURED_GRID
 POINTS         391  float
  0.50371505999999999       0.50367786999999997        0.0000000000000000     
  0.29013556000000001       0.29014535000000002        0.0000000000000000     
  0.70165584999999997       0.71206597999999999        0.0000000000000000     
  0.70304188999999995       0.30176619999999998        0.0000000000000000     
  0.30920671999999999       0.71149227999999998        0.0000000000000000     
  0.79044983999999996       0.49884783999999999        0.0000000000000000     
  0.49102621000000002       0.20968644000000000        0.0000000000000000     
  0.49912957000000002       0.77208717000000004        0.0000000000000000     
  0.21724072999999999       0.48989389000000000        0.0000000000000000     
  0.83255933999999998       0.83046598000000005        0.0000000000000000     
  0.16646774000000000       0.17015694000000001        0.0000000000000000     
  0.83054514999999995       0.16736480000000001        0.0000000000000000     
  0.16953130999999999       0.83265739000000005        0.0000000000000000     
  0.42166445000000002       0.36345201999999999        0.0000000000000000     
  0.64462200999999997       0.56347807999999999        0.0000000000000000     
  0.35324633999999999       0.56311191000000005        0.0000000000000000     
  0.65456411000000003       0.84856860999999995        0.0000000000000000     
  0.35141477999999998       0.15563974000000000        0.0000000000000000     
  0.15290967000000000       0.35206625000000003        0.0000000000000000     
  0.82942241000000005       0.34936866000000000        0.0000000000000000     
  0.84390527000000004       0.64441694999999999        0.0000000000000000     
  0.63699174999999997       0.14284276000000001        0.0000000000000000     
  0.15620682999999999       0.64648446999999998        0.0000000000000000     
  0.36426062999999997       0.85756310999999996        0.0000000000000000     
  0.63489340999999999       0.40519052000000000        0.0000000000000000     
  0.52518872999999999       0.65957078000000002        0.0000000000000000     
  0.32158959999999998       0.42298103999999997        0.0000000000000000     
  0.58861710000000000       0.31711036999999997        0.0000000000000000     
  0.42078418000000001       0.69497151999999995        0.0000000000000000     
  0.48608786999999998       0.89334152000000000        0.0000000000000000     
   9.7084320000000002E-002  0.50000000000000000        0.0000000000000000     
  0.90291568000000000       0.50000000000000000        0.0000000000000000     
  0.51392453000000005       0.10668648999999999        0.0000000000000000     
  0.59792566999999996       0.73122754000000001        0.0000000000000000     
  0.74510058999999995       0.41124730999999998        0.0000000000000000     
  0.73212551999999997       0.90191560000000004        0.0000000000000000     
   9.7784830000000003E-002  0.26957329000000002        0.0000000000000000     
  0.26711221000000002        9.8671499999999995E-002   0.0000000000000000     
  0.90191560000000004       0.26787448000000003        0.0000000000000000     
  0.90118569000000004       0.73039821000000005        0.0000000000000000     
  0.73122947000000005        9.8017859999999998E-002   0.0000000000000000     
   9.8084400000000002E-002  0.73212551999999997        0.0000000000000000     
  0.26957329000000002       0.90221516999999996        0.0000000000000000     
  0.39283522999999998       0.25360379000000000        0.0000000000000000     
  0.74480864000000002       0.60495284999999999        0.0000000000000000     
  0.25505132000000003       0.60593640999999998        0.0000000000000000     
  0.52159297999999998       0.40671636000000000        0.0000000000000000     
  0.40768852000000000       0.47699891000000000        0.0000000000000000     
   9.1467049999999994E-002   9.1876959999999994E-002   0.0000000000000000     
  0.90842484999999995       0.90819225000000003        0.0000000000000000     
  0.90820104999999995        9.1566729999999999E-002   0.0000000000000000     
   9.1807449999999999E-002  0.90843574000000005        0.0000000000000000     
  0.27098960000000000       0.20527094000000001        0.0000000000000000     
  0.73457293999999995       0.79835387000000002        0.0000000000000000     
  0.79817773000000003       0.25713470999999999        0.0000000000000000     
  0.20747797000000001       0.72863946000000002        0.0000000000000000     
  0.20175195000000001       0.27583914999999998        0.0000000000000000     
  0.79603889000000005       0.72159035000000005        0.0000000000000000     
  0.71761666000000002       0.19748431999999999        0.0000000000000000     
  0.28462607000000001       0.80251899999999998        0.0000000000000000     
  0.69134598999999997       0.49261972999999998        0.0000000000000000     
  0.44720578999999999       0.58582935999999997        0.0000000000000000     
  0.24242269999999999       0.37228174000000003        0.0000000000000000     
  0.38265623999999998       0.93072131999999996        0.0000000000000000     
  0.60971754000000000       0.91988369000000003        0.0000000000000000     
   7.9163609999999995E-002  0.60979116000000000        0.0000000000000000     
  0.92010649000000000       0.61081183999999999        0.0000000000000000     
  0.61954008999999999        7.1530830000000004E-002   0.0000000000000000     
  0.91882012999999996       0.38917363999999999        0.0000000000000000     
  0.39086346000000000        8.0652249999999995E-002   0.0000000000000000     
   7.9183480000000001E-002  0.38966213000000000        0.0000000000000000     
  0.59114111999999996       0.49294315000000000        0.0000000000000000     
  0.63337980999999999       0.64485914000000000        0.0000000000000000     
  0.50012352000000004       0.29676539000000002        0.0000000000000000     
  0.82552601000000003       0.92753492000000004        0.0000000000000000     
  0.92774772999999999       0.82498556999999995        0.0000000000000000     
   7.1970870000000006E-002  0.17510291000000000        0.0000000000000000     
  0.17422821999999999        7.2635640000000001E-002   0.0000000000000000     
  0.82510813000000005        7.2134840000000006E-002   0.0000000000000000     
  0.92754665000000003       0.17446275999999999        0.0000000000000000     
  0.17501022999999999       0.92789951999999998        0.0000000000000000     
   7.2464680000000004E-002  0.82554053000000005        0.0000000000000000     
  0.30731587999999999       0.50885354999999999        0.0000000000000000     
  0.59033407999999998       0.22171178999999999        0.0000000000000000     
  0.40109191999999999       0.78725542000000004        0.0000000000000000     
  0.35420917000000002       0.63754104000000000        0.0000000000000000     
  0.15983976999999999       0.56665573000000002        0.0000000000000000     
  0.84108459999999996       0.56757886999999996        0.0000000000000000     
  0.83902096000000004       0.43344338999999998        0.0000000000000000     
  0.43230028999999998       0.16004268999999999        0.0000000000000000     
  0.57536027999999995       0.83041363999999995        0.0000000000000000     
  0.15771898000000001       0.42747892999999998        0.0000000000000000     
  0.34021692999999997       0.34221559000000001        0.0000000000000000     
  0.56002271999999997       0.57501117999999996        0.0000000000000000     
  0.65344329000000001       0.78147597999999996        0.0000000000000000     
   0.0000000000000000        0.0000000000000000        0.0000000000000000     
   1.0000000000000000        0.0000000000000000        0.0000000000000000     
   1.0000000000000000        1.0000000000000000        0.0000000000000000     
   0.0000000000000000        1.0000000000000000        0.0000000000000000     
  0.11111111000000000        0.0000000000000000        0.0000000000000000     
  0.22222222000000000        0.0000000000000000        0.0000000000000000     
  0.33333332999999998        0.0000000000000000        0.0000000000000000     
  0.44444444000000000        0.0000000000000000        0.0000000000000000     
  0.55555555999999995        0.0000000000000000        0.0000000000000000     
  0.66666667000000002        0.0000000000000000        0.0000000000000000     
  0.77777777999999997        0.0000000000000000        0.0000000000000000     
  0.88888889000000004        0.0000000000000000        0.0000000000000000     
   1.0000000000000000       0.11111111000000000        0.0000000000000000     
   1.0000000000000000       0.22222222000000000        0.0000000000000000     
   1.0000000000000000       0.33333332999999998        0.0000000000000000     
   1.0000000000000000       0.44444444000000000        0.0000000000000000     
   1.0000000000000000       0.55555555999999995        0.0000000000000000     
   1.0000000000000000       0.66666667000000002        0.0000000000000000     
   1.0000000000000000       0.77777777999999997        0.0000000000000000     
   1.0000000000000000       0.88888889000000004        0.0000000000000000     
  0.88888889000000004        1.0000000000000000        0.0000000000000000     
  0.77777777999999997        1.0000000000000000        0.0000000000000000     
  0.66666667000000002        1.0000000000000000        0.0000000000000000     
  0.55555555999999995        1.0000000000000000        0.0000000000000000     
  0.44444444000000000        1.0000000000000000        0.0000000000000000     
  0.33333332999999998        1.0000000000000000        0.0000000000000000     
  0.22222222000000000        1.0000000000000000        0.0000000000000000     
  0.11111111000000000        1.0000000000000000        0.0000000000000000     
   0.0000000000000000       0.11111111000000000        0.0000000000000000     
   0.0000000000000000       0.22222222000000000        0.0000000000000000     
[...]
 CELL_DATA         354
 SCALARS C float
 LOOKUP_TABLE default
    0.90060950059549504942E+00
    0.11309135376441523668E+01
    0.70866823386446209376E+00
    0.74231596837958058188E+00
    0.98973030109106541197E+00
    0.10571282258110026309E+01
    0.11613829419871573023E+01
    0.11170960874485902359E+01
    0.11928076134851055556E+01
    0.11901484179434711486E+01
    0.11691010784586008953E+01
    0.11868542491519227244E+01
    0.11633737805802617515E+01
    0.11646084324664587317E+01
    0.11717975713415473837E+01
    0.11663304437928747603E+01
    0.11743766437211529130E+01
    0.11890987430870916253E+01
    0.11997739532187914335E+01
    0.11943295228057282387E+01
    0.11746573236831703291E+01
    0.11801081991644768454E+01
    0.11958533841841250123E+01
    0.11839617073822228388E+01
    0.11956228833906785702E+01
    0.11926311855934059736E+01
    0.11944658368437643947E+01
    0.11997638332203783840E+01
    0.11549812744495544514E+01
    0.11149106761161728940E+01
    0.98443651718754943136E+00
    0.10602446579324900089E+01
    0.90403353420809962060E+00
    0.81841691759171009135E+00
    0.72106563568259629537E+00
    0.76038920283705246916E+00
    0.71015283735200762649E+00
    0.71826098197461374362E+00
    0.75945205843776375509E+00
    0.73098981652104311202E+00
    0.77082791706782483043E+00
    0.77403659126659685175E+00
    0.78912604875218428369E+00
    0.77894177548868026584E+00
    0.78069493208699669573E+00
    0.74655517782958691342E+00
    0.71983001142684754914E+00
    0.73028561353840526493E+00
    0.71167991950796216649E+00
    0.69839836884857287025E+00
    0.71284795572298453870E+00
    0.70389204786670878100E+00
    0.93329248370083073283E+00
    0.95183348036006409920E+00
    0.10121237477959057482E+01
    0.97722090863294708285E+00
    0.10137861753935115683E+01
    0.99271788905082569698E+00
    0.95617733926553805102E+00
    0.97623573403683827632E+00
    0.91822252381806834798E+00
    0.85779509593906810849E+00
    0.76501508751598445990E+00
    0.81147252484017673435E+00
    0.73380859512218954421E+00
    0.70353439731227473963E+00
    0.70585477670381169268E+00
    0.70167931458384691368E+00
    0.11482312460774390939E+01
    0.11743241823287424719E+01
    0.11852901440221854656E+01
    0.11602831663769479498E+01
    0.11814386456309855511E+01
    0.11740139171589603073E+01
    0.12011867334736587853E+01
    0.12036612164556674820E+01
    0.12056636174770325454E+01
    0.11866633572717391054E+01
    0.11884247521220876465E+01
    0.12069947889440473254E+01
    0.11147514511633695999E+01
    0.11536341378824657156E+01
    0.12146131080058710783E+01
    0.11362168746906322614E+01
    0.11584687870498004969E+01
    0.11257981500413238862E+01
    0.10248821992085150878E+01
    0.11546269533903852356E+01
    0.11503696038559820813E+01
    0.11476823618988736264E+01
    0.10892614372900197850E+01
    0.11525847783180520612E+01
    0.11224044310762864018E+01
    0.10182912515555124777E+01
    0.10053638752704090464E+01
    0.10635000710678887970E+01
    0.11775007458640345259E+01
    0.12090692509660025955E+01
    0.11770477468698001822E+01
    0.12010997977958077776E+01
    0.11867134973273627541E+01
    0.12048382478013406338E+01
    0.12041759321718812359E+01
    0.11424580315773988914E+01
    0.11403494663199222892E+01
    0.11121424957909793463E+01
    0.11134140288827287790E+01
    0.11376500446892618967E+01
    0.11852662369753619309E+01
    0.11500188457412297005E+01
    0.10128467169364097078E+01
    0.11461265770103623574E+01
    0.10688903367242164055E+01
    0.10559001434664214703E+01
    0.12016574861474245139E+01
    0.11363178349520615118E+01
    0.11987487921214357023E+01
    0.12120764043585872116E+01
    0.12227777341493772933E+01
    0.11376356699454110988E+01
    0.12032558485307065510E+01
    0.87065002786569334337E+00
    0.95693311659140911640E+00
    0.80798650004369310107E+00
    0.97367125974886659101E+00
    0.10238305464070833750E+01
    0.81476147140773957922E+00
    0.85825208511530215461E+00
    0.11439609409145692354E+01
    0.12041182208362282147E+01
    0.11061345527093879859E+01
    0.12173156222509557978E+01
    0.12145313362087246656E+01
    0.11010183988965758228E+01
    0.11550852710004171353E+01
    0.12028123808461756994E+01
    0.11821664430054661388E+01
    0.12004278318075012333E+01
    0.11856377207649344552E+01
    0.11681530288163670672E+01
    0.11950549265841465818E+01
    0.12011264695251819834E+01
    0.77766811849598072026E+00
    0.75693125022111806821E+00
    0.71561215911543563095E+00
    0.84590200668327031330E+00
    0.83166212963829400096E+00
    0.72032004120679338222E+00
    0.72661683199680038303E+00
    0.11691171208930768444E+01
    0.11461751494463250367E+01
    0.11463560704220387976E+01
    0.11609704852698743416E+01
    0.11281993986983578360E+01
    0.11589804204590954395E+01
    0.12026195191108071114E+01
    0.11861969599363311190E+01
    0.11726192228379015425E+01
    0.12033259232543638273E+01
    0.11935672377272874556E+01
    0.12044261542541163656E+01
    0.11877011938821411263E+01
    0.11979813196052528923E+01
    0.12052800872619338080E+01
    0.12189139244837199350E+01
    0.91052756199883488897E+00
    0.10027192211813233946E+01
    0.91049881211991001706E+00
    0.99171984039044347448E+00
    0.10418849843752535644E+01
    0.11964797189317155635E+01
    0.11703048449110127205E+01
    0.11975031065249588380E+01
    0.11938553754653871142E+01
    0.11698356383773567124E+01
    0.11570109800253196575E+01
    0.12099840658311102892E+01
    0.12108447262010753054E+01
    0.11369814049879600759E+01
    0.11826601685642854633E+01
    0.11735123204013409026E+01
    0.12014175569276268618E+01
    0.11832917550954558106E+01
    0.12035640799795532807E+01
    0.11998291340558107088E+01
    0.11132631652127942257E+01
    0.12071151792726046992E+01
    0.11489630925923721705E+01
    0.11734992938948709540E+01
    0.12055919479047387810E+01
    0.11404599673408479799E+01
    0.11532887158289388818E+01
    0.11366776994486804675E+01
    0.11480179806667254461E+01
    0.11107119255685016235E+01
    0.89423812897026921931E+00
    0.10704744468562921167E+01
    0.96656241012227117615E+00
    0.94335883144958987412E+00
    0.10320000567795226676E+01
    0.87868017587032665183E+00
    0.81817400648251781270E+00
    0.89360218027940363505E+00
    0.82199548830384383535E+00
    0.94981006432503889414E+00
    0.10514892933344297532E+01
    0.11536325272767644634E+01
    0.11268137242682458865E+01
    0.11499481155229438478E+01
    0.11494215383668773267E+01
    0.12057745599566955796E+01
    0.12054653470128973147E+01
    0.12072873216581427869E+01
    0.12086886177848554791E+01
    0.11984211323838831476E+01
    0.11855144633234009355E+01
    0.12065890008454722704E+01
    0.12020852318504449130E+01
    0.11880081746092481243E+01
    0.10343607277893915875E+01
    0.98651031727525839710E+00
    0.98035403862450187784E+00
    0.12094203259388023319E+01
    0.11105928249851624301E+01
    0.12122644361829426618E+01
    0.81486987054543491560E+00
    0.85595506101961471579E+00
    0.96942271637286991925E+00
    0.95415831267055017939E+00
    0.96718895368008062086E+00
    0.10486003274293227427E+01
    0.10521550608814926875E+01
    0.11277393683592853435E+01
    0.11965440372843740846E+01
    0.12246536282553714958E+01
    0.12237154184063392393E+01
    0.12112794507371575925E+01
    0.11555700264586508119E+01
    0.11688713332167881553E+01
    0.11249071984111020939E+01
    0.11536275922869525523E+01
    0.12149440162230622509E+01
    0.11070414492816798013E+01
    0.11410387287157808256E+01
    0.11664477939046007382E+01
    0.11823945316036872377E+01
    0.93810205038798888388E+00
    0.83684224658449990475E+00
    0.79164887577563314291E+00
    0.11881794397989424716E+01
    0.10817446406702595496E+01
    0.10601880085158223999E+01
    0.12171846420841367920E+01
    0.11977112562817009422E+01
    0.11736770374880678425E+01
    0.11943111309754064209E+01
    0.12082086843033530421E+01
    0.12051967548004545172E+01
    0.10648615847531668344E+01
    0.10899897189780196616E+01
    0.90162725551841926830E+00
    0.11600266752587122809E+01
    0.11641098605975856994E+01
    0.11816647575202163800E+01
    0.86481715773567457983E+00
    0.84621644381412297609E+00
    0.73852922106265184166E+00
    0.82473553509125974159E+00
    0.76335097615121816350E+00
    0.71790447710894067512E+00
    0.11787089460002835306E+01
    0.11247496098300722167E+01
    0.11534663820126649370E+01
    0.11625698844951974920E+01
    0.11836572936104845510E+01
    0.11923739653982339259E+01
    0.12131397989947143579E+01
    0.12109941784103901430E+01
    0.10559278165218373147E+01
    0.12098140541909776502E+01
    0.12044076945487263153E+01
    0.11180550243545746003E+01
    0.11513838881029674344E+01
    0.11472380455905784036E+01
    0.10936288473255628695E+01
    0.11876355635837354541E+01
    0.11902674219666387057E+01
    0.10315921158670708913E+01
    0.10803889510352107095E+01
    0.74806324670101753682E+00
    0.77817616310585335793E+00
    0.12103623782671815157E+01
    0.12136281780101321193E+01
    0.69643241040184622470E+00
    0.69944200684723933925E+00
    0.12209693324848993612E+01
    0.10754621949651432811E+01
    0.10741565115827185206E+01
    0.11580334497301305596E+01
    0.92553996292244544719E+00
    0.12135959764949821871E+01
    0.11283210148707094600E+01
    0.97974992720809805924E+00
    0.11628178251945473498E+01
    0.12126428458352511708E+01
    0.11976992830757864361E+01
    0.12053988884723627617E+01
    0.11965717974741161278E+01
    0.92921198556510220534E+00
    0.10017083029491851143E+01
    0.12040695796013762831E+01
    0.12154567914242471183E+01
    0.11712253582107701178E+01
    0.11268246301421946942E+01
    0.11714955352577964831E+01
    0.12029358843808977131E+01
    0.10537705484459989336E+01
    0.10694263396354206641E+01
    0.88559547038483699133E+00
    0.83292295822047179854E+00
    0.11451966912182225400E+01
    0.11056824398298954470E+01
    0.70522936350567289043E+00
    0.69964943303399507180E+00
    0.76409278520061574280E+00
    0.75476473248729281096E+00
    0.10613616849956324373E+01
    0.11999299393733431351E+01
    0.12577035400959490907E+01
    0.12643623574289730715E+01
    0.12614608005139094082E+01
    0.12613111106351211355E+01
    0.12386018428645084732E+01
    0.11862922425422082195E+01
    0.12200723713500369882E+01
    0.12061515907896191990E+01
    0.11496651528324108860E+01
    0.10417626049064903082E+01
    0.89501299150952196015E+00
    0.76042724766808822423E+00
    0.70117683220837423441E+00
    0.71951509618800635337E+00
    0.72997746500783067258E+00
    0.72867215278094321640E+00
    0.70980487152261884098E+00
    0.69787026179531697068E+00
    0.70949016663373654090E+00
    0.89265006735607221877E+00
    0.92709356364894146552E+00
    0.91076982633847702875E+00
    0.86069128685972073889E+00
    0.78404967280169990396E+00
    0.72022634506156912870E+00
    0.70322229228177590699E+00
