# vtk DataFile Version 3.0
LAPLACIEN  2D
ASCII
DATASET UNSTRUCTURED_GRID
 POINTS         391  float
  0.50371505999999999       0.50367786999999997        0.0000000000000000     
  0.29013556000000001       0.29014535000000002        0.0000000000000000     
  0.70165584999999997       0.71206597999999999        0.0000000000000000     
  0.70304188999999995       0.30176619999999998        0.0000000000000000     
  0.30920671999999999       0.71149227999999998        0.0000000000000000     
  0.79044983999999996       0.49884783999999999        0.0000000000000000     
  0.49102621000000002       0.20968644000000000        0.0000000000000000     
  0.49912957000000002       0.77208717000000004        0.0000000000000000     
  0.21724072999999999       0.48989389000000000        0.0000000000000000     
  0.83255933999999998       0.83046598000000005        0.0000000000000000     
  0.16646774000000000       0.17015694000000001        0.0000000000000000     
  0.83054514999999995       0.16736480000000001        0.0000000000000000     
  0.16953130999999999       0.83265739000000005        0.0000000000000000     
  0.42166445000000002       0.36345201999999999        0.0000000000000000     
  0.64462200999999997       0.56347807999999999        0.0000000000000000     
  0.35324633999999999       0.56311191000000005        0.0000000000000000     
  0.65456411000000003       0.84856860999999995        0.0000000000000000     
  0.35141477999999998       0.15563974000000000        0.0000000000000000     
  0.15290967000000000       0.35206625000000003        0.0000000000000000     
  0.82942241000000005       0.34936866000000000        0.0000000000000000     
  0.84390527000000004       0.64441694999999999        0.0000000000000000     
  0.63699174999999997       0.14284276000000001        0.0000000000000000     
  0.15620682999999999       0.64648446999999998        0.0000000000000000     
  0.36426062999999997       0.85756310999999996        0.0000000000000000     
  0.63489340999999999       0.40519052000000000        0.0000000000000000     
  0.52518872999999999       0.65957078000000002        0.0000000000000000     
  0.32158959999999998       0.42298103999999997        0.0000000000000000     
  0.58861710000000000       0.31711036999999997        0.0000000000000000     
  0.42078418000000001       0.69497151999999995        0.0000000000000000     
  0.48608786999999998       0.89334152000000000        0.0000000000000000     
   9.7084320000000002E-002  0.50000000000000000        0.0000000000000000     
  0.90291568000000000       0.50000000000000000        0.0000000000000000     
  0.51392453000000005       0.10668648999999999        0.0000000000000000     
  0.59792566999999996       0.73122754000000001        0.0000000000000000     
  0.74510058999999995       0.41124730999999998        0.0000000000000000     
  0.73212551999999997       0.90191560000000004        0.0000000000000000     
   9.7784830000000003E-002  0.26957329000000002        0.0000000000000000     
  0.26711221000000002        9.8671499999999995E-002   0.0000000000000000     
  0.90191560000000004       0.26787448000000003        0.0000000000000000     
  0.90118569000000004       0.73039821000000005        0.0000000000000000     
  0.73122947000000005        9.8017859999999998E-002   0.0000000000000000     
   9.8084400000000002E-002  0.73212551999999997        0.0000000000000000     
  0.26957329000000002       0.90221516999999996        0.0000000000000000     
  0.39283522999999998       0.25360379000000000        0.0000000000000000     
  0.74480864000000002       0.60495284999999999        0.0000000000000000     
  0.25505132000000003       0.60593640999999998        0.0000000000000000     
  0.52159297999999998       0.40671636000000000        0.0000000000000000     
  0.40768852000000000       0.47699891000000000        0.0000000000000000     
   9.1467049999999994E-002   9.1876959999999994E-002   0.0000000000000000     
  0.90842484999999995       0.90819225000000003        0.0000000000000000     
  0.90820104999999995        9.1566729999999999E-002   0.0000000000000000     
   9.1807449999999999E-002  0.90843574000000005        0.0000000000000000     
  0.27098960000000000       0.20527094000000001        0.0000000000000000     
  0.73457293999999995       0.79835387000000002        0.0000000000000000     
  0.79817773000000003       0.25713470999999999        0.0000000000000000     
  0.20747797000000001       0.72863946000000002        0.0000000000000000     
  0.20175195000000001       0.27583914999999998        0.0000000000000000     
  0.79603889000000005       0.72159035000000005        0.0000000000000000     
  0.71761666000000002       0.19748431999999999        0.0000000000000000     
  0.28462607000000001       0.80251899999999998        0.0000000000000000     
  0.69134598999999997       0.49261972999999998        0.0000000000000000     
  0.44720578999999999       0.58582935999999997        0.0000000000000000     
  0.24242269999999999       0.37228174000000003        0.0000000000000000     
  0.38265623999999998       0.93072131999999996        0.0000000000000000     
  0.60971754000000000       0.91988369000000003        0.0000000000000000     
   7.9163609999999995E-002  0.60979116000000000        0.0000000000000000     
  0.92010649000000000       0.61081183999999999        0.0000000000000000     
  0.61954008999999999        7.1530830000000004E-002   0.0000000000000000     
  0.91882012999999996       0.38917363999999999        0.0000000000000000     
  0.39086346000000000        8.0652249999999995E-002   0.0000000000000000     
   7.9183480000000001E-002  0.38966213000000000        0.0000000000000000     
  0.59114111999999996       0.49294315000000000        0.0000000000000000     
  0.63337980999999999       0.64485914000000000        0.0000000000000000     
  0.50012352000000004       0.29676539000000002        0.0000000000000000     
  0.82552601000000003       0.92753492000000004        0.0000000000000000     
  0.92774772999999999       0.82498556999999995        0.0000000000000000     
   7.1970870000000006E-002  0.17510291000000000        0.0000000000000000     
  0.17422821999999999        7.2635640000000001E-002   0.0000000000000000     
  0.82510813000000005        7.2134840000000006E-002   0.0000000000000000     
  0.92754665000000003       0.17446275999999999        0.0000000000000000     
  0.17501022999999999       0.92789951999999998        0.0000000000000000     
   7.2464680000000004E-002  0.82554053000000005        0.0000000000000000     
  0.30731587999999999       0.50885354999999999        0.0000000000000000     
  0.59033407999999998       0.22171178999999999        0.0000000000000000     
  0.40109191999999999       0.78725542000000004        0.0000000000000000     
  0.35420917000000002       0.63754104000000000        0.0000000000000000     
  0.15983976999999999       0.56665573000000002        0.0000000000000000     
  0.84108459999999996       0.56757886999999996        0.0000000000000000     
  0.83902096000000004       0.43344338999999998        0.0000000000000000     
  0.43230028999999998       0.16004268999999999        0.0000000000000000     
  0.57536027999999995       0.83041363999999995        0.0000000000000000     
  0.15771898000000001       0.42747892999999998        0.0000000000000000     
  0.34021692999999997       0.34221559000000001        0.0000000000000000     
  0.56002271999999997       0.57501117999999996        0.0000000000000000     
  0.65344329000000001       0.78147597999999996        0.0000000000000000     
   0.0000000000000000        0.0000000000000000        0.0000000000000000     
   1.0000000000000000        0.0000000000000000        0.0000000000000000     
   1.0000000000000000        1.0000000000000000        0.0000000000000000     
   0.0000000000000000        1.0000000000000000        0.0000000000000000     
  0.11111111000000000        0.0000000000000000        0.0000000000000000     
  0.22222222000000000        0.0000000000000000        0.0000000000000000     
  0.33333332999999998        0.0000000000000000        0.0000000000000000     
  0.44444444000000000        0.0000000000000000        0.0000000000000000     
  0.55555555999999995        0.0000000000000000        0.0000000000000000     
  0.66666667000000002        0.0000000000000000        0.0000000000000000     
  0.77777777999999997        0.0000000000000000        0.0000000000000000     
  0.88888889000000004        0.0000000000000000        0.0000000000000000     
   1.0000000000000000       0.11111111000000000        0.0000000000000000     
   1.0000000000000000       0.22222222000000000        0.0000000000000000     
   1.0000000000000000       0.33333332999999998        0.0000000000000000     
   1.0000000000000000       0.44444444000000000        0.0000000000000000     
   1.0000000000000000       0.55555555999999995        0.0000000000000000     
   1.0000000000000000       0.66666667000000002        0.0000000000000000     
   1.0000000000000000       0.77777777999999997        0.0000000000000000     
   1.0000000000000000       0.88888889000000004        0.0000000000000000     
  0.88888889000000004        1.0000000000000000        0.0000000000000000     
  0.77777777999999997        1.0000000000000000        0.0000000000000000     
  0.66666667000000002        1.0000000000000000        0.0000000000000000     
  0.55555555999999995        1.0000000000000000        0.0000000000000000     
  0.44444444000000000        1.0000000000000000        0.0000000000000000     
  0.33333332999999998        1.0000000000000000        0.0000000000000000     
  0.22222222000000000        1.0000000000000000        0.0000000000000000     
  0.11111111000000000        1.0000000000000000        0.0000000000000000     
   0.0000000000000000       0.11111111000000000        0.0000000000000000     
   0.0000000000000000       0.22222222000000000        0.0000000000000000     
[...]
 CELL_DATA         354
 SCALARS C float
 LOOKUP_TABLE default
    0.90376910775060104175E+00
    0.11312693784098157845E+01
    0.71263342330403234293E+00
    0.74546746976167010956E+00
    0.99220200741095154751E+00
    0.10581558157612285243E+01
    0.11629929525240290111E+01
    0.11180565911242312804E+01
    0.11938852953630854081E+01
    0.11908864702164421168E+01
    0.11696910924213963501E+01
    0.11874819629524537845E+01
    0.11637767057437549134E+01
    0.11651063137519703794E+01
    0.11723719679798740856E+01
    0.11669129247845151376E+01
    0.11751539508115360633E+01
    0.11898395311668865659E+01
    0.12013088555288164994E+01
    0.11957544779691036130E+01
    0.11753848252460685764E+01
    0.11811881818625955543E+01
    0.11967729448496839950E+01
    0.11845741086602026293E+01
    0.11964829248110753213E+01
    0.11935023550343617504E+01
    0.11954018169802886895E+01
    0.12010328877215592502E+01
    0.11553993606728543142E+01
    0.11156560246187257057E+01
    0.98673445893558187070E+00
    0.10613712100173691155E+01
    0.90717265138302494165E+00
    0.82215772006214571377E+00
    0.72518834386371766598E+00
    0.76439139589013316289E+00
    0.71427283047953249451E+00
    0.72235113539347339806E+00
    0.76342988625484997645E+00
    0.73510561255065165476E+00
    0.77467297971180471006E+00
    0.77789483658363300922E+00
    0.79289181129699615180E+00
    0.78279505289752371322E+00
    0.78456967549491252178E+00
    0.75062114897662179924E+00
    0.72389190983967099946E+00
    0.73432256104902970950E+00
    0.71571531020493472930E+00
    0.70242634966240513616E+00
    0.71638922718126751832E+00
    0.70756048797424520025E+00
    0.93626993434335803457E+00
    0.95470176054006983257E+00
    0.10144418767002647552E+01
    0.97983339885793752089E+00
    0.10157670714870141726E+01
    0.99490070725992585388E+00
    0.95886686130236575831E+00
    0.97877765444949837992E+00
    0.92121204221042340965E+00
    0.86121218054609893766E+00
    0.76890575328674559685E+00
    0.81513821298773070367E+00
    0.73785998628345939032E+00
    0.70767069383049041598E+00
    0.70934896099174560291E+00
    0.70551028424720962917E+00
    0.11484387915809564085E+01
    0.11747473949396838311E+01
    0.11859468196918507843E+01
    0.11604230757473712465E+01
    0.11821418272769814717E+01
    0.11746216726057003843E+01
    0.12019308821157856926E+01
    0.12042557981063395367E+01
    0.12061576591979856765E+01
    0.11872115441181685380E+01
    0.11905123840937599233E+01
    0.12085573031658503051E+01
    0.11152490410433717472E+01
    0.11551135131716301352E+01
    0.12163933262010819814E+01
    0.11369753147162664497E+01
    0.11588055067411970889E+01
    0.11261783409317296378E+01
    0.10233409282005752061E+01
    0.11553008621452725002E+01
    0.11505732930085883492E+01
    0.11483904398791802137E+01
    0.10890262874394220916E+01
    0.11539995824616560149E+01
    0.11237632870498350801E+01
    0.10199252017638555934E+01
    0.10077368942467117563E+01
    0.10645625155653153371E+01
    0.11801871110762653938E+01
    0.12097953743551841388E+01
    0.11777190520543927565E+01
    0.12017176555939586002E+01
    0.11873933714653834848E+01
    0.12053303849243808266E+01
    0.12049136490432446056E+01
    0.11429181424014582813E+01
    0.11407465887605965360E+01
    0.11129394635271487868E+01
    0.11143951924469901460E+01
    0.11378270401972123693E+01
    0.11875068084034965388E+01
    0.11513524372533374684E+01
    0.10153622541583282590E+01
    0.11474186164218771466E+01
    0.10701370745799612116E+01
    0.10570907636480253444E+01
    0.12024502952658531196E+01
    0.11373484602428725054E+01
    0.12009897839056722368E+01
    0.12135068899779644092E+01
    0.12243165780242082352E+01
    0.11381194633146143325E+01
    0.12056864846816250925E+01
    0.87402496126198758741E+00
    0.95960470858477575629E+00
    0.81180549144234293024E+00
    0.97632303613333992764E+00
    0.10260252118731414406E+01
    0.81841871754809625283E+00
    0.86169917711514831815E+00
    0.11447765670345850797E+01
    0.12059513978213121099E+01
    0.11070089793297397396E+01
    0.12189133284148443437E+01
    0.12164834092786422914E+01
    0.11010426264236912175E+01
    0.11565646045608888315E+01
    0.12033515702964103777E+01
    0.11826897907188156367E+01
    0.12011696631197359419E+01
    0.11862230428793567594E+01
    0.11685960113746001188E+01
    0.11956057160474122814E+01
    0.12015775064440950004E+01
    0.78156484548143767555E+00
    0.76091428436634833687E+00
    0.71970919128558064060E+00
    0.84951127705667794920E+00
    0.83534011546369457690E+00
    0.72439718681777143239E+00
    0.73069071601140889172E+00
    0.11695337907101353014E+01
    0.11461532313377615910E+01
    0.11471263729799157094E+01
    0.11612047853757276883E+01
    0.11290570969356459319E+01
    0.11592376193249489535E+01
    0.12031701265771619358E+01
    0.11868161846514224678E+01
    0.11732725048497889553E+01
    0.12038347006042466880E+01
    0.11943830425912880244E+01
    0.12058770023095830570E+01
    0.11883097779601363708E+01
    0.11985633989713337932E+01
    0.12057064630130376326E+01
    0.12205772544557480508E+01
    0.91383314987102370885E+00
    0.10053543626080563289E+01
    0.91389322969642261540E+00
    0.99425671176792784767E+00
    0.10439664159303605473E+01
    0.11969938556078496550E+01
    0.11708180755999135769E+01
    0.11981578586244865381E+01
    0.11943217382914039781E+01
    0.11701925627505807004E+01
    0.11583863706405708172E+01
    0.12119617214929694349E+01
    0.12125290073808878688E+01
    0.11381164319456447132E+01
    0.11845856248850523684E+01
    0.11738676015872613334E+01
    0.12018246244113452992E+01
    0.11837452044142100505E+01
    0.12040231195690249688E+01
    0.12005522536310337944E+01
    0.11142890017024291716E+01
    0.12088663378080877209E+01
    0.11503077032837614180E+01
    0.11752427258553514999E+01
    0.12074201876905883424E+01
    0.11403631235350422113E+01
    0.11535168149106616031E+01
    0.11365214600270259204E+01
    0.11482390561362587622E+01
    0.11108357271540292288E+01
    0.89769881564905995575E+00
    0.10715200627801282351E+01
    0.96920974394450809530E+00
    0.94651887169408133182E+00
    0.10335517441269905792E+01
    0.88185095292552473367E+00
    0.82203187326732507501E+00
    0.89689376479037208334E+00
    0.82570757067204070268E+00
    0.95252255108841721309E+00
    0.10511129815261488485E+01
    0.11543957255040699916E+01
    0.11273951714218186648E+01
    0.11502045199340615866E+01
    0.11501580290511355109E+01
    0.12074816876386742504E+01
    0.12071770311642970874E+01
    0.12079918379659548844E+01
    0.12093222402804875149E+01
    0.11989293533069460551E+01
    0.11860178713622910873E+01
    0.12071330784657838819E+01
    0.12024970470696301206E+01
    0.11885349077692664022E+01
    0.10332002631468271137E+01
    0.98424328469418953524E+00
    0.97799411540736835846E+00
    0.12108608781640344265E+01
    0.11106625469301532050E+01
    0.12147113305816612527E+01
    0.81857928068977914293E+00
    0.85946522364633159974E+00
    0.97210143946658444936E+00
    0.95700070936664838328E+00
    0.96999202785231219970E+00
    0.10501577969384987554E+01
    0.10530930579449302442E+01
    0.11294699135821126834E+01
    0.11981170459106342818E+01
    0.12256129406833646822E+01
    0.12250393515855304560E+01
    0.12118227219916744009E+01
    0.11558937286141046652E+01
    0.11694869917637056300E+01
    0.11255771533058436251E+01
    0.11538019594403841062E+01
    0.12167570356492691808E+01
    0.11075662413826625752E+01
    0.11421545140877393809E+01
    0.11666968257336114423E+01
    0.11831230967127779330E+01
    0.94114205476367018832E+00
    0.84054242493936359715E+00
    0.79547520995762555085E+00
    0.11904002265483377698E+01
    0.10826572054368304165E+01
    0.10608806810632476214E+01
    0.12181176834632168049E+01
    0.11983285390618296784E+01
    0.11754557877685742895E+01
    0.11949938370679262789E+01
    0.12086815096185707930E+01
    0.12057939268948225653E+01
    0.10662769294685536803E+01
    0.10915246197078753987E+01
    0.90478113739719157049E+00
    0.11603226210054562451E+01
    0.11646880933890331189E+01
    0.11823467631265012212E+01
    0.86834355321746814482E+00
    0.84988080051645398250E+00
    0.74257401164699210483E+00
    0.82847373393110523843E+00
    0.76740973645190591057E+00
    0.72196471370411030577E+00
    0.11795146328780274914E+01
    0.11252610733446348767E+01
    0.11536026423462431012E+01
    0.11628459291814161602E+01
    0.11855083545426254865E+01
    0.11931352434540090091E+01
    0.12137013212994365308E+01
    0.12118914959251925190E+01
    0.10570876364151589044E+01
    0.12113894624202177219E+01
    0.12069714399639082103E+01
    0.11190661908679508940E+01
    0.11517730467391240623E+01
    0.11478101427434397319E+01
    0.10934822560173038664E+01
    0.11882462316149986492E+01
    0.11908484692946703642E+01
    0.10335181879165662444E+01
    0.10816918060972073867E+01
    0.75215174906538218025E+00
    0.78217605517657817771E+00
    0.12115312758379599423E+01
    0.12149004058979409049E+01
    0.70031967011289386615E+00
    0.70342992834323081475E+00
    0.12219536039779825831E+01
    0.10768342108097688214E+01
    0.10754136543964951667E+01
    0.11582059233773662754E+01
    0.92867731765774408359E+00
    0.12145028950695053727E+01
    0.11292502833692887876E+01
    0.98222647488368797219E+00
    0.11630212500112984131E+01
    0.12140227329067974082E+01
    0.11983754290427526268E+01
    0.12072152677561320822E+01
    0.11972120479630885548E+01
    0.93237903050367654245E+00
    0.10043339908447848075E+01
    0.12061493789333985749E+01
    0.12159603007284409681E+01
    0.11716872444905708228E+01
    0.11280519017400758575E+01
    0.11722030771615830069E+01
    0.12035046023475717281E+01
    0.10529952141025007428E+01
    0.10708630575621609360E+01
    0.88892746846320336296E+00
    0.83644135054922297279E+00
    0.11467492302273749605E+01
    0.11064082628008646836E+01
    0.70912763942989087695E+00
    0.70350349152406810305E+00
    0.76696583889389469135E+00
    0.75753390552321486773E+00
    0.10625310789975968007E+01
    0.12010724246802384485E+01
    0.12577188459859109937E+01
    0.12640080638572328553E+01
    0.12610471022054652313E+01
    0.12611754152693173125E+01
    0.12393174532760422579E+01
    0.11871360180971859410E+01
    0.12210447808099487155E+01
    0.12071385889301871064E+01
    0.11505191123597331426E+01
    0.10431408995530908612E+01
    0.89812982133954077923E+00
    0.76439142882362709486E+00
    0.70524186083303275208E+00
    0.72358381168667984529E+00
    0.73403832993724615896E+00
    0.73271863520630919897E+00
    0.71390231412280047429E+00
    0.70187068401224106395E+00
    0.71314523425364895193E+00
    0.89580484862257225842E+00
    0.92997764160566176450E+00
    0.91378433620155341544E+00
    0.86403572562220720688E+00
    0.78786869094471712049E+00
    0.72426988896800670314E+00
    0.70705134104007771878E+00
