# vtk DataFile Version 3.0
LAPLACIEN  2D
ASCII
DATASET UNSTRUCTURED_GRID
 POINTS         391  float
  0.50371505999999999       0.50367786999999997        0.0000000000000000     
  0.29013556000000001       0.29014535000000002        0.0000000000000000     
  0.70165584999999997       0.71206597999999999        0.0000000000000000     
  0.70304188999999995       0.30176619999999998        0.0000000000000000     
  0.30920671999999999       0.71149227999999998        0.0000000000000000     
  0.79044983999999996       0.49884783999999999        0.0000000000000000     
  0.49102621000000002       0.20968644000000000        0.0000000000000000     
  0.49912957000000002       0.77208717000000004        0.0000000000000000     
  0.21724072999999999       0.48989389000000000        0.0000000000000000     
  0.83255933999999998       0.83046598000000005        0.0000000000000000     
  0.16646774000000000       0.17015694000000001        0.0000000000000000     
  0.83054514999999995       0.16736480000000001        0.0000000000000000     
  0.16953130999999999       0.83265739000000005        0.0000000000000000     
  0.42166445000000002       0.36345201999999999        0.0000000000000000     
  0.64462200999999997       0.56347807999999999        0.0000000000000000     
  0.35324633999999999       0.56311191000000005        0.0000000000000000     
  0.65456411000000003       0.84856860999999995        0.0000000000000000     
  0.35141477999999998       0.15563974000000000        0.0000000000000000     
  0.15290967000000000       0.35206625000000003        0.0000000000000000     
  0.82942241000000005       0.34936866000000000        0.0000000000000000     
  0.84390527000000004       0.64441694999999999        0.0000000000000000     
  0.63699174999999997       0.14284276000000001        0.0000000000000000     
  0.15620682999999999       0.64648446999999998        0.0000000000000000     
  0.36426062999999997       0.85756310999999996        0.0000000000000000     
  0.63489340999999999       0.40519052000000000        0.0000000000000000     
  0.52518872999999999       0.65957078000000002        0.0000000000000000     
  0.32158959999999998       0.42298103999999997        0.0000000000000000     
  0.58861710000000000       0.31711036999999997        0.0000000000000000     
  0.42078418000000001       0.69497151999999995        0.0000000000000000     
  0.48608786999999998       0.89334152000000000        0.0000000000000000     
   9.7084320000000002E-002  0.50000000000000000        0.0000000000000000     
  0.90291568000000000       0.50000000000000000        0.0000000000000000     
  0.51392453000000005       0.10668648999999999        0.0000000000000000     
  0.59792566999999996       0.73122754000000001        0.0000000000000000     
  0.74510058999999995       0.41124730999999998        0.0000000000000000     
  0.73212551999999997       0.90191560000000004        0.0000000000000000     
   9.7784830000000003E-002  0.26957329000000002        0.0000000000000000     
  0.26711221000000002        9.8671499999999995E-002   0.0000000000000000     
  0.90191560000000004       0.26787448000000003        0.0000000000000000     
  0.90118569000000004       0.73039821000000005        0.0000000000000000     
  0.73122947000000005        9.8017859999999998E-002   0.0000000000000000     
   9.8084400000000002E-002  0.73212551999999997        0.0000000000000000     
  0.26957329000000002       0.90221516999999996        0.0000000000000000     
  0.39283522999999998       0.25360379000000000        0.0000000000000000     
  0.74480864000000002       0.60495284999999999        0.0000000000000000     
  0.25505132000000003       0.60593640999999998        0.0000000000000000     
  0.52159297999999998       0.40671636000000000        0.0000000000000000     
  0.40768852000000000       0.47699891000000000        0.0000000000000000     
   9.1467049999999994E-002   9.1876959999999994E-002   0.0000000000000000     
  0.90842484999999995       0.90819225000000003        0.0000000000000000     
  0.90820104999999995        9.1566729999999999E-002   0.0000000000000000     
   9.1807449999999999E-002  0.90843574000000005        0.0000000000000000     
  0.27098960000000000       0.20527094000000001        0.0000000000000000     
  0.73457293999999995       0.79835387000000002        0.0000000000000000     
  0.79817773000000003       0.25713470999999999        0.0000000000000000     
  0.20747797000000001       0.72863946000000002        0.0000000000000000     
  0.20175195000000001       0.27583914999999998        0.0000000000000000     
  0.79603889000000005       0.72159035000000005        0.0000000000000000     
  0.71761666000000002       0.19748431999999999        0.0000000000000000     
  0.28462607000000001       0.80251899999999998        0.0000000000000000     
  0.69134598999999997       0.49261972999999998        0.0000000000000000     
  0.44720578999999999       0.58582935999999997        0.0000000000000000     
  0.24242269999999999       0.37228174000000003        0.0000000000000000     
  0.38265623999999998       0.93072131999999996        0.0000000000000000     
  0.60971754000000000       0.91988369000000003        0.0000000000000000     
   7.9163609999999995E-002  0.60979116000000000        0.0000000000000000     
  0.92010649000000000       0.61081183999999999        0.0000000000000000     
  0.61954008999999999        7.1530830000000004E-002   0.0000000000000000     
  0.91882012999999996       0.38917363999999999        0.0000000000000000     
  0.39086346000000000        8.0652249999999995E-002   0.0000000000000000     
   7.9183480000000001E-002  0.38966213000000000        0.0000000000000000     
  0.59114111999999996       0.49294315000000000        0.0000000000000000     
  0.63337980999999999       0.64485914000000000        0.0000000000000000     
  0.50012352000000004       0.29676539000000002        0.0000000000000000     
  0.82552601000000003       0.92753492000000004        0.0000000000000000     
  0.92774772999999999       0.82498556999999995        0.0000000000000000     
   7.1970870000000006E-002  0.17510291000000000        0.0000000000000000     
  0.17422821999999999        7.2635640000000001E-002   0.0000000000000000     
  0.82510813000000005        7.2134840000000006E-002   0.0000000000000000     
  0.92754665000000003       0.17446275999999999        0.0000000000000000     
  0.17501022999999999       0.92789951999999998        0.0000000000000000     
   7.2464680000000004E-002  0.82554053000000005        0.0000000000000000     
  0.30731587999999999       0.50885354999999999        0.0000000000000000     
  0.59033407999999998       0.22171178999999999        0.0000000000000000     
  0.40109191999999999       0.78725542000000004        0.0000000000000000     
  0.35420917000000002       0.63754104000000000        0.0000000000000000     
  0.15983976999999999       0.56665573000000002        0.0000000000000000     
  0.84108459999999996       0.56757886999999996        0.0000000000000000     
  0.83902096000000004       0.43344338999999998        0.0000000000000000     
  0.43230028999999998       0.16004268999999999        0.0000000000000000     
  0.57536027999999995       0.83041363999999995        0.0000000000000000     
  0.15771898000000001       0.42747892999999998        0.0000000000000000     
  0.34021692999999997       0.34221559000000001        0.0000000000000000     
  0.56002271999999997       0.57501117999999996        0.0000000000000000     
  0.65344329000000001       0.78147597999999996        0.0000000000000000     
   0.0000000000000000        0.0000000000000000        0.0000000000000000     
   1.0000000000000000        0.0000000000000000        0.0000000000000000     
   1.0000000000000000        1.0000000000000000        0.0000000000000000     
   0.0000000000000000        1.0000000000000000        0.0000000000000000     
  0.11111111000000000        0.0000000000000000        0.0000000000000000     
  0.22222222000000000        0.0000000000000000        0.0000000000000000     
  0.33333332999999998        0.0000000000000000        0.0000000000000000     
  0.44444444000000000        0.0000000000000000        0.0000000000000000     
  0.55555555999999995        0.0000000000000000        0.0000000000000000     
  0.66666667000000002        0.0000000000000000        0.0000000000000000     
  0.77777777999999997        0.0000000000000000        0.0000000000000000     
  0.88888889000000004        0.0000000000000000        0.0000000000000000     
   1.0000000000000000       0.11111111000000000        0.0000000000000000     
   1.0000000000000000       0.22222222000000000        0.0000000000000000     
   1.0000000000000000       0.33333332999999998        0.0000000000000000     
   1.0000000000000000       0.44444444000000000        0.0000000000000000     
   1.0000000000000000       0.55555555999999995        0.0000000000000000     
   1.0000000000000000       0.66666667000000002        0.0000000000000000     
   1.0000000000000000       0.77777777999999997        0.0000000000000000     
   1.0000000000000000       0.88888889000000004        0.0000000000000000     
  0.88888889000000004        1.0000000000000000        0.0000000000000000     
  0.77777777999999997        1.0000000000000000        0.0000000000000000     
  0.66666667000000002        1.0000000000000000        0.0000000000000000     
  0.55555555999999995        1.0000000000000000        0.0000000000000000     
  0.44444444000000000        1.0000000000000000        0.0000000000000000     
  0.33333332999999998        1.0000000000000000        0.0000000000000000     
  0.22222222000000000        1.0000000000000000        0.0000000000000000     
  0.11111111000000000        1.0000000000000000        0.0000000000000000     
   0.0000000000000000       0.11111111000000000        0.0000000000000000     
   0.0000000000000000       0.22222222000000000        0.0000000000000000     
[...]
 CELL_DATA         354
 SCALARS C float
 LOOKUP_TABLE default
    0.74262512405656533332E+00
    0.11472526146919626022E+01
    0.51939746866374103540E+00
    0.59885446619033944060E+00
    0.85995854252620640423E+00
    0.97494167659289099337E+00
    0.12363425568466306359E+01
    0.11079834669798815927E+01
    0.13430449106350073052E+01
    0.14129488051367347090E+01
    0.14770888051945532116E+01
    0.14632927859087005995E+01
    0.14867638359281298843E+01
    0.14906404251557603402E+01
    0.14830573740027834795E+01
    0.14874734108293656831E+01
    0.14545754106474384493E+01
    0.14091408386346297998E+01
    0.12603969313789185058E+01
    0.13339708672580670168E+01
    0.12176141656552788017E+01
    0.12549226854192834235E+01
    0.13382924855112399154E+01
    0.12993297903167577712E+01
    0.13476373867383721894E+01
    0.13275225348081827192E+01
    0.12580868925684662862E+01
    0.12962182656637064593E+01
    0.11854824226143669819E+01
    0.10804108098537719140E+01
    0.85790510086850479965E+00
    0.97269093996066680052E+00
    0.74689255689577038755E+00
    0.63494601380519199996E+00
    0.52211882405562226594E+00
    0.56623375684370513827E+00
    0.51322609837246069286E+00
    0.52083404560708035369E+00
    0.56553534227186330607E+00
    0.53176613478580492256E+00
    0.58024593318546247023E+00
    0.58344847574494995701E+00
    0.60222880411481649610E+00
    0.58869386774505261251E+00
    0.59083270154182698786E+00
    0.54850909201338227117E+00
    0.52193507670499428297E+00
    0.53285260336275219739E+00
    0.51712676557443382208E+00
    0.50782432512753250542E+00
    0.54727687209395792234E+00
    0.52844087454408206206E+00
    0.78364639184864681720E+00
    0.80700278615184828368E+00
    0.88968396047527731341E+00
    0.84144938852148842834E+00
    0.89821218947708647562E+00
    0.86867086765851486696E+00
    0.81625834306753630720E+00
    0.84285614034971656494E+00
    0.76651193214362667305E+00
    0.68661323474158719726E+00
    0.57239293991930584315E+00
    0.62946888878549489554E+00
    0.53722939141596603996E+00
    0.50595741373197988811E+00
    0.53691801250164028492E+00
    0.51796463454600916165E+00
    0.14362163338721882777E+01
    0.14890076241054956974E+01
    0.14862542824346691717E+01
    0.14735869355387845037E+01
    0.14936018669810655624E+01
    0.14870356912516289327E+01
    0.14673947048667512760E+01
    0.14245856116007267200E+01
    0.14525052088123331373E+01
    0.14914241171265563146E+01
    0.12189037968071858575E+01
    0.13100589504853288325E+01
    0.10741417798033630060E+01
    0.11585494194076124685E+01
    0.13179031047660891840E+01
    0.11212730162906212605E+01
    0.14457131542497996257E+01
    0.13227154936840765931E+01
    0.11987949957456682792E+01
    0.14153299459203845245E+01
    0.14367296723721465490E+01
    0.13842311102945399348E+01
    0.12651995421828319266E+01
    0.11264785001950925469E+01
    0.10888383679305053686E+01
    0.91828772749151799104E+00
    0.88525594015525710390E+00
    0.98647883029500271768E+00
    0.11633739283674824350E+01
    0.14235455216026717817E+01
    0.14889067603494978709E+01
    0.14542895969508280452E+01
    0.14908203472685488400E+01
    0.14214930850885461044E+01
    0.14804171138444650602E+01
    0.14111842141999437761E+01
    0.14052228247703331121E+01
    0.12981126422372373241E+01
    0.12987371356785142318E+01
    0.14289066604510292091E+01
    0.12289699149071386941E+01
    0.11539013265131328190E+01
    0.89089516388485145981E+00
    0.11437004221002171622E+01
    0.99886556870041232070E+00
    0.98208876181993887133E+00
    0.13960495128359264871E+01
    0.11025847842451563796E+01
    0.12238746107838043287E+01
    0.13501509121545940406E+01
    0.13499900882864164231E+01
    0.11284399923063619386E+01
    0.12221865528250830391E+01
    0.70355576906566485995E+00
    0.81977614018580791111E+00
    0.62321161470127872661E+00
    0.84058027143079261378E+00
    0.91071013813278800519E+00
    0.63408643311062773407E+00
    0.68784216228952832495E+00
    0.11354389042220651707E+01
    0.12897588168036782097E+01
    0.10503275363263062658E+01
    0.13397697958419401143E+01
    0.12783889898421878506E+01
    0.10544832328407522937E+01
    0.11572044767229601181E+01
    0.14703907001649620945E+01
    0.14931666685114768356E+01
    0.14137572917915355308E+01
    0.14921455082751848842E+01
    0.14795901008133076626E+01
    0.14598516051245180591E+01
    0.14292176484236702727E+01
    0.58648348589019594357E+00
    0.56169216583949999055E+00
    0.51890229634545670390E+00
    0.67090745037261556583E+00
    0.65260655403650891238E+00
    0.52222919948255663858E+00
    0.52827028998966230056E+00
    0.14797365507495900960E+01
    0.14418684909432064600E+01
    0.13889499631309283334E+01
    0.14697146682655304328E+01
    0.13489383553942970728E+01
    0.14766484691923156269E+01
    0.14630425023012680885E+01
    0.14934930067508851437E+01
    0.14893606464333331019E+01
    0.14586630109672649169E+01
    0.14918648568841570423E+01
    0.13050648565142917157E+01
    0.14619992732180939754E+01
    0.14350256659469136089E+01
    0.14089432265632384489E+01
    0.13456671807597420099E+01
    0.75247864571943556822E+00
    0.87742166486619854737E+00
    0.75033639184236056163E+00
    0.86618258697864680684E+00
    0.93618216243745666638E+00
    0.14440368292235592484E+01
    0.14881469167002192577E+01
    0.14740240505040067553E+01
    0.14868274802220673436E+01
    0.14910357988642011229E+01
    0.11421618728785922769E+01
    0.12770818392737059987E+01
    0.13110902072154777542E+01
    0.11001794961050279653E+01
    0.12007347507090189165E+01
    0.14838714587792336541E+01
    0.14787968946573348816E+01
    0.14906713333674446176E+01
    0.14629737011845822536E+01
    0.14902886115089499786E+01
    0.10563771546206703889E+01
    0.12996806950791592872E+01
    0.11491267942728387030E+01
    0.11591227760795330681E+01
    0.12826398502712339500E+01
    0.14431630057038846715E+01
    0.14718139475018601203E+01
    0.14274643270682145779E+01
    0.14712225116735762054E+01
    0.13577915062015442071E+01
    0.73020367630507065915E+00
    0.99311672453587440668E+00
    0.83224531024189229989E+00
    0.79428468924668615969E+00
    0.93471818407858553446E+00
    0.71689434374931415572E+00
    0.63303686796369429413E+00
    0.73184376907974912907E+00
    0.63983891468357223520E+00
    0.81048677961400650283E+00
    0.12142410080354473223E+01
    0.14089665452677917479E+01
    0.13228009043834836334E+01
    0.14304380010403345835E+01
    0.14066439488982847017E+01
    0.13038187780460157583E+01
    0.12911101033943344074E+01
    0.14173429508062751481E+01
    0.13931289496932586225E+01
    0.14433820031985329368E+01
    0.14919527896093895958E+01
    0.14497484570955185834E+01
    0.14503380226999882385E+01
    0.14919405238264249469E+01
    0.12047709259643482049E+01
    0.11439877664156619108E+01
    0.11377004310973568568E+01
    0.13493417272228762638E+01
    0.10809266219966815470E+01
    0.12570683926518788631E+01
    0.63195326284700692465E+00
    0.68328987616432956820E+00
    0.83392726267522232497E+00
    0.81340041573812649212E+00
    0.82842663342015632200E+00
    0.95220956066081186009E+00
    0.97628091298304875423E+00
    0.10698066002353745496E+01
    0.12322010566215726435E+01
    0.13736107408724520518E+01
    0.13494127816475063320E+01
    0.14265302672057040834E+01
    0.14858872678278649548E+01
    0.14886820874480273247E+01
    0.13683005641214234238E+01
    0.14741676747932344060E+01
    0.13126622138474957069E+01
    0.10593563810131196856E+01
    0.11171043520629233559E+01
    0.14775832617985578121E+01
    0.14891657851514052968E+01
    0.79135762523837138716E+00
    0.65729814726285940019E+00
    0.60379999897774538908E+00
    0.12068977178263637917E+01
    0.10113259088011292697E+01
    0.98996284557389435665E+00
    0.14046246151869639096E+01
    0.14306184640507337846E+01
    0.12277154514332218049E+01
    0.14832350682845689693E+01
    0.14258139054996323836E+01
    0.14060836148304396431E+01
    0.98337736008459364356E+00
    0.10082259967446007831E+01
    0.74472313501630682531E+00
    0.14760873665090026297E+01
    0.14953924111308967149E+01
    0.14696319599551708190E+01
    0.69440766996051039861E+00
    0.66938727514974960542E+00
    0.54168242217345952128E+00
    0.64361093453430906486E+00
    0.56703368897349182287E+00
    0.52014573848078937690E+00
    0.14780508315937326280E+01
    0.13642803838942763051E+01
    0.14681421604024549321E+01
    0.14844236052935686487E+01
    0.12494100507007943612E+01
    0.14710792532449366021E+01
    0.14079215343484798861E+01
    0.13840153666439471980E+01
    0.97456854958338945405E+00
    0.13074023648678889664E+01
    0.12272902386322848134E+01
    0.10865697682378709921E+01
    0.14392010235661185646E+01
    0.14079124250279357877E+01
    0.12738718460715507952E+01
    0.14833660466396847433E+01
    0.14660038500154666252E+01
    0.92054570873863150737E+00
    0.10097522911315830463E+01
    0.55048983976052767719E+00
    0.58544192899254521301E+00
    0.13799708169769535626E+01
    0.13452374642265421123E+01
    0.50682964917030559615E+00
    0.50650490233966305453E+00
    0.13958495891443916115E+01
    0.10037919466305393890E+01
    0.99482715061258408795E+00
    0.14645643446886107419E+01
    0.77311381796176437131E+00
    0.13809148386651548535E+01
    0.13402585977242402748E+01
    0.85081010076253282826E+00
    0.14747010620403813164E+01
    0.13684770744922922781E+01
    0.14771862172558871684E+01
    0.12950610737920766891E+01
    0.14700876192927063713E+01
    0.77765651197762664104E+00
    0.87458838133211957988E+00
    0.12502641334986341892E+01
    0.14478222979419130834E+01
    0.14895609991133529348E+01
    0.10788576978922588268E+01
    0.14889212762834753701E+01
    0.14554417437645301714E+01
    0.12017555543035653987E+01
    0.98308522751208649026E+00
    0.72148836390142512265E+00
    0.65562855362044480945E+00
    0.11036738235473624314E+01
    0.10632126658766076766E+01
    0.51883802079171270627E+00
    0.51701293808986392708E+00
    0.63760055131289505859E+00
    0.62586240128024472895E+00
    0.97753339097815572512E+00
    0.12293857948792021872E+01
    0.13941886309912436825E+01
    0.14661981441046820773E+01
    0.14743467140388051284E+01
    0.14361628842999074607E+01
    0.13138650845834562997E+01
    0.11914043545254919820E+01
    0.12527791552415226128E+01
    0.12252057218773744207E+01
    0.11232531449052025607E+01
    0.94254726877534211749E+00
    0.73570820881144594061E+00
    0.56730226991497145761E+00
    0.50487602660743313709E+00
    0.52024367805661742015E+00
    0.53046190943724302880E+00
    0.52972267696631913925E+00
    0.51055157202405254679E+00
    0.50573054074017154136E+00
    0.53969926896578912512E+00
    0.73102020301549841541E+00
    0.77614794755299865159E+00
    0.75431670092851144105E+00
    0.69017045542548594028E+00
    0.59413198256271815278E+00
    0.52283976774839491242E+00
    0.52214142967406584894E+00
