# vtk DataFile Version 3.0
LAPLACIEN  2D
ASCII
DATASET UNSTRUCTURED_GRID
 POINTS         391  float
  0.50371505999999999       0.50367786999999997        0.0000000000000000     
  0.29013556000000001       0.29014535000000002        0.0000000000000000     
  0.70165584999999997       0.71206597999999999        0.0000000000000000     
  0.70304188999999995       0.30176619999999998        0.0000000000000000     
  0.30920671999999999       0.71149227999999998        0.0000000000000000     
  0.79044983999999996       0.49884783999999999        0.0000000000000000     
  0.49102621000000002       0.20968644000000000        0.0000000000000000     
  0.49912957000000002       0.77208717000000004        0.0000000000000000     
  0.21724072999999999       0.48989389000000000        0.0000000000000000     
  0.83255933999999998       0.83046598000000005        0.0000000000000000     
  0.16646774000000000       0.17015694000000001        0.0000000000000000     
  0.83054514999999995       0.16736480000000001        0.0000000000000000     
  0.16953130999999999       0.83265739000000005        0.0000000000000000     
  0.42166445000000002       0.36345201999999999        0.0000000000000000     
  0.64462200999999997       0.56347807999999999        0.0000000000000000     
  0.35324633999999999       0.56311191000000005        0.0000000000000000     
  0.65456411000000003       0.84856860999999995        0.0000000000000000     
  0.35141477999999998       0.15563974000000000        0.0000000000000000     
  0.15290967000000000       0.35206625000000003        0.0000000000000000     
  0.82942241000000005       0.34936866000000000        0.0000000000000000     
  0.84390527000000004       0.64441694999999999        0.0000000000000000     
  0.63699174999999997       0.14284276000000001        0.0000000000000000     
  0.15620682999999999       0.64648446999999998        0.0000000000000000     
  0.36426062999999997       0.85756310999999996        0.0000000000000000     
  0.63489340999999999       0.40519052000000000        0.0000000000000000     
  0.52518872999999999       0.65957078000000002        0.0000000000000000     
  0.32158959999999998       0.42298103999999997        0.0000000000000000     
  0.58861710000000000       0.31711036999999997        0.0000000000000000     
  0.42078418000000001       0.69497151999999995        0.0000000000000000     
  0.48608786999999998       0.89334152000000000        0.0000000000000000     
   9.7084320000000002E-002  0.50000000000000000        0.0000000000000000     
  0.90291568000000000       0.50000000000000000        0.0000000000000000     
  0.51392453000000005       0.10668648999999999        0.0000000000000000     
  0.59792566999999996       0.73122754000000001        0.0000000000000000     
  0.74510058999999995       0.41124730999999998        0.0000000000000000     
  0.73212551999999997       0.90191560000000004        0.0000000000000000     
   9.7784830000000003E-002  0.26957329000000002        0.0000000000000000     
  0.26711221000000002        9.8671499999999995E-002   0.0000000000000000     
  0.90191560000000004       0.26787448000000003        0.0000000000000000     
  0.90118569000000004       0.73039821000000005        0.0000000000000000     
  0.73122947000000005        9.8017859999999998E-002   0.0000000000000000     
   9.8084400000000002E-002  0.73212551999999997        0.0000000000000000     
  0.26957329000000002       0.90221516999999996        0.0000000000000000     
  0.39283522999999998       0.25360379000000000        0.0000000000000000     
  0.74480864000000002       0.60495284999999999        0.0000000000000000     
  0.25505132000000003       0.60593640999999998        0.0000000000000000     
  0.52159297999999998       0.40671636000000000        0.0000000000000000     
  0.40768852000000000       0.47699891000000000        0.0000000000000000     
   9.1467049999999994E-002   9.1876959999999994E-002   0.0000000000000000     
  0.90842484999999995       0.90819225000000003        0.0000000000000000     
  0.90820104999999995        9.1566729999999999E-002   0.0000000000000000     
   9.1807449999999999E-002  0.90843574000000005        0.0000000000000000     
  0.27098960000000000       0.20527094000000001        0.0000000000000000     
  0.73457293999999995       0.79835387000000002        0.0000000000000000     
  0.79817773000000003       0.25713470999999999        0.0000000000000000     
  0.20747797000000001       0.72863946000000002        0.0000000000000000     
  0.20175195000000001       0.27583914999999998        0.0000000000000000     
  0.79603889000000005       0.72159035000000005        0.0000000000000000     
  0.71761666000000002       0.19748431999999999        0.0000000000000000     
  0.28462607000000001       0.80251899999999998        0.0000000000000000     
  0.69134598999999997       0.49261972999999998        0.0000000000000000     
  0.44720578999999999       0.58582935999999997        0.0000000000000000     
  0.24242269999999999       0.37228174000000003        0.0000000000000000     
  0.38265623999999998       0.93072131999999996        0.0000000000000000     
  0.60971754000000000       0.91988369000000003        0.0000000000000000     
   7.9163609999999995E-002  0.60979116000000000        0.0000000000000000     
  0.92010649000000000       0.61081183999999999        0.0000000000000000     
  0.61954008999999999        7.1530830000000004E-002   0.0000000000000000     
  0.91882012999999996       0.38917363999999999        0.0000000000000000     
  0.39086346000000000        8.0652249999999995E-002   0.0000000000000000     
   7.9183480000000001E-002  0.38966213000000000        0.0000000000000000     
  0.59114111999999996       0.49294315000000000        0.0000000000000000     
  0.63337980999999999       0.64485914000000000        0.0000000000000000     
  0.50012352000000004       0.29676539000000002        0.0000000000000000     
  0.82552601000000003       0.92753492000000004        0.0000000000000000     
  0.92774772999999999       0.82498556999999995        0.0000000000000000     
   7.1970870000000006E-002  0.17510291000000000        0.0000000000000000     
  0.17422821999999999        7.2635640000000001E-002   0.0000000000000000     
  0.82510813000000005        7.2134840000000006E-002   0.0000000000000000     
  0.92754665000000003       0.17446275999999999        0.0000000000000000     
  0.17501022999999999       0.92789951999999998        0.0000000000000000     
   7.2464680000000004E-002  0.82554053000000005        0.0000000000000000     
  0.30731587999999999       0.50885354999999999        0.0000000000000000     
  0.59033407999999998       0.22171178999999999        0.0000000000000000     
  0.40109191999999999       0.78725542000000004        0.0000000000000000     
  0.35420917000000002       0.63754104000000000        0.0000000000000000     
  0.15983976999999999       0.56665573000000002        0.0000000000000000     
  0.84108459999999996       0.56757886999999996        0.0000000000000000     
  0.83902096000000004       0.43344338999999998        0.0000000000000000     
  0.43230028999999998       0.16004268999999999        0.0000000000000000     
  0.57536027999999995       0.83041363999999995        0.0000000000000000     
  0.15771898000000001       0.42747892999999998        0.0000000000000000     
  0.34021692999999997       0.34221559000000001        0.0000000000000000     
  0.56002271999999997       0.57501117999999996        0.0000000000000000     
  0.65344329000000001       0.78147597999999996        0.0000000000000000     
   0.0000000000000000        0.0000000000000000        0.0000000000000000     
   1.0000000000000000        0.0000000000000000        0.0000000000000000     
   1.0000000000000000        1.0000000000000000        0.0000000000000000     
   0.0000000000000000        1.0000000000000000        0.0000000000000000     
  0.11111111000000000        0.0000000000000000        0.0000000000000000     
  0.22222222000000000        0.0000000000000000        0.0000000000000000     
  0.33333332999999998        0.0000000000000000        0.0000000000000000     
  0.44444444000000000        0.0000000000000000        0.0000000000000000     
  0.55555555999999995        0.0000000000000000        0.0000000000000000     
  0.66666667000000002        0.0000000000000000        0.0000000000000000     
  0.77777777999999997        0.0000000000000000        0.0000000000000000     
  0.88888889000000004        0.0000000000000000        0.0000000000000000     
   1.0000000000000000       0.11111111000000000        0.0000000000000000     
   1.0000000000000000       0.22222222000000000        0.0000000000000000     
   1.0000000000000000       0.33333332999999998        0.0000000000000000     
   1.0000000000000000       0.44444444000000000        0.0000000000000000     
   1.0000000000000000       0.55555555999999995        0.0000000000000000     
   1.0000000000000000       0.66666667000000002        0.0000000000000000     
   1.0000000000000000       0.77777777999999997        0.0000000000000000     
   1.0000000000000000       0.88888889000000004        0.0000000000000000     
  0.88888889000000004        1.0000000000000000        0.0000000000000000     
  0.77777777999999997        1.0000000000000000        0.0000000000000000     
  0.66666667000000002        1.0000000000000000        0.0000000000000000     
  0.55555555999999995        1.0000000000000000        0.0000000000000000     
  0.44444444000000000        1.0000000000000000        0.0000000000000000     
  0.33333332999999998        1.0000000000000000        0.0000000000000000     
  0.22222222000000000        1.0000000000000000        0.0000000000000000     
  0.11111111000000000        1.0000000000000000        0.0000000000000000     
   0.0000000000000000       0.11111111000000000        0.0000000000000000     
   0.0000000000000000       0.22222222000000000        0.0000000000000000     
[...]
 CELL_DATA         354
 SCALARS E float
 LOOKUP_TABLE default
    0.73785253196986344548E+00
    0.74449968972429170222E+00
    0.67413461492179749257E+00
    0.61752170427871566627E+00
    0.74672131133282615423E+00
    0.74854779253270553596E+00
    0.74061004451178891195E+00
    0.74791230389248841703E+00
    0.73137484361932170174E+00
    0.71749057563481499766E+00
    0.68565440394905541321E+00
    0.70414850817214569290E+00
    0.67856916986603166286E+00
    0.68317387703592635795E+00
    0.69312565015288218895E+00
    0.68710418863905031728E+00
    0.70415487910253715675E+00
    0.72042163335562625637E+00
    0.73959335844666251880E+00
    0.73117690070614060893E+00
    0.74229830445777189585E+00
    0.73944330386910084307E+00
    0.73016649844155812055E+00
    0.73605240563819585020E+00
    0.72909485240452232002E+00
    0.73261084657885366944E+00
    0.73959035798771366466E+00
    0.73557653201035089197E+00
    0.74330015540135252472E+00
    0.74847701997836879606E+00
    0.74676229793902615395E+00
    0.74842701358529539757E+00
    0.73917264954500216945E+00
    0.72827463162567629418E+00
    0.69722066481711930663E+00
    0.71242388712959203723E+00
    0.68636931650455468290E+00
    0.69298530955482462446E+00
    0.71120738575494613087E+00
    0.70216044079492478946E+00
    0.71641176553694174700E+00
    0.71736909414430027887E+00
    0.72040835919724799385E+00
    0.71865794020447615331E+00
    0.71728806872702488562E+00
    0.70886842430581631369E+00
    0.69619345361622841928E+00
    0.70156681176709523307E+00
    0.68439860026777488144E+00
    0.66773514036151515594E+00
    0.63752592169165311908E+00
    0.65086883091370251186E+00
    0.74227012131400305073E+00
    0.74370420650572754973E+00
    0.74671720143940534253E+00
    0.74579394973417434400E+00
    0.74704547056055925491E+00
    0.74668315309566823945E+00
    0.74428912982405326382E+00
    0.74540333608724407277E+00
    0.74030671809883441536E+00
    0.73463390622790025741E+00
    0.71603009258984862129E+00
    0.72582713905223772421E+00
    0.70075978865489207958E+00
    0.68185264280710966567E+00
    0.64282084785183568609E+00
    0.66084824182987333963E+00
    0.63050413548208206205E+00
    0.66370846779194747622E+00
    0.68309351169216525612E+00
    0.64808777128101535681E+00
    0.67413106352499196916E+00
    0.67407972500953738937E+00
    0.70260602441849617783E+00
    0.71541188136073929904E+00
    0.70850564990843567514E+00
    0.68483077225494981555E+00
    0.74320226155418733782E+00
    0.73412935705326554103E+00
    0.74797061914567386509E+00
    0.74582531799113538362E+00
    0.73357814928415954192E+00
    0.74742805753225249887E+00
    0.63926030694336732907E+00
    0.58666753392998338690E+00
    0.55188358182375751859E+00
    0.62063922365811241555E+00
    0.63124489400549288476E+00
    0.60774520329155246046E+00
    0.56979183103743158423E+00
    0.74700290757389231633E+00
    0.74818898321977944654E+00
    0.74791293491808108485E+00
    0.74696226474025684272E+00
    0.74944311087692616624E+00
    0.74525244148164371261E+00
    0.71530201895454259553E+00
    0.67303315221665815926E+00
    0.70739384744899447277E+00
    0.67991014373931690784E+00
    0.71640517629997968463E+00
    0.69675791416920596077E+00
    0.61887693661158693637E+00
    0.61579850320855000767E+00
    0.57929330018550673209E+00
    0.57954370437703495167E+00
    0.62553786457688587141E+00
    0.74045508053957465044E+00
    0.74600545129020967572E+00
    0.74608365646669994042E+00
    0.74645306768957175869E+00
    0.74922652212751561507E+00
    0.74905089183649475881E+00
    0.71932547435701121863E+00
    0.74655880933747176265E+00
    0.74253907857346179711E+00
    0.72962587048299876180E+00
    0.72957816177754442055E+00
    0.74647644441834470896E+00
    0.74253878329478661957E+00
    0.73670385800424886824E+00
    0.74483650868201223272E+00
    0.72435330991985069637E+00
    0.74558332732545218313E+00
    0.74693701684204583113E+00
    0.72695944436675941080E+00
    0.73488580224563482268E+00
    0.74685052270649998629E+00
    0.73684063958693757357E+00
    0.74813960820707692267E+00
    0.72968055325534275646E+00
    0.73796477517414948988E+00
    0.74830820775897388675E+00
    0.74614647627404040442E+00
    0.70186588235156510684E+00
    0.68351608641354477669E+00
    0.71678308248624489352E+00
    0.67617955601253376674E+00
    0.66241104916513005030E+00
    0.70588164552735732649E+00
    0.71415048858872576254E+00
    0.71964889980548696347E+00
    0.71381292711193033984E+00
    0.68721887046097407392E+00
    0.73126325657722290874E+00
    0.72935555624637249394E+00
    0.69557325143104498100E+00
    0.70024243361826532528E+00
    0.66385851209378377025E+00
    0.63055632585953302893E+00
    0.60948683741325238028E+00
    0.64958530381640966489E+00
    0.59619524382576072341E+00
    0.65289090358554258131E+00
    0.70296629339103411382E+00
    0.67577675115464919120E+00
    0.66674790290390095748E+00
    0.70540462437072037893E+00
    0.68822250339308110867E+00
    0.73433907716512258901E+00
    0.70162840355440692086E+00
    0.71431450877551339040E+00
    0.72033600502078720673E+00
    0.73062267551043780234E+00
    0.74056467821569971210E+00
    0.74759033290052689935E+00
    0.74045595610945846854E+00
    0.74728602705704516573E+00
    0.74879441184430728384E+00
    0.70859512875066532622E+00
    0.66753204725752746107E+00
    0.69823824321707794738E+00
    0.69225138760323634557E+00
    0.66824359788896525725E+00
    0.74662768534406120935E+00
    0.73829030597631994937E+00
    0.73425272580755041041E+00
    0.74771177789767961919E+00
    0.74412461644509997338E+00
    0.65953593787169273455E+00
    0.69510733502396493400E+00
    0.66722052944179788270E+00
    0.70185729427507981271E+00
    0.68799325873361150130E+00
    0.74792525216608063410E+00
    0.73520236543848360711E+00
    0.74619192754562280179E+00
    0.74611208771894488301E+00
    0.73771678950152219656E+00
    0.63153577208073174987E+00
    0.65005432436103982585E+00
    0.62405692743096929931E+00
    0.64730155093404584399E+00
    0.59894789065963993657E+00
    0.73782638192514382602E+00
    0.74830181996979061587E+00
    0.74550734368619209214E+00
    0.74365994900362442088E+00
    0.74871316803494059045E+00
    0.73826281667161219868E+00
    0.72708664166555525554E+00
    0.73942353538714700179E+00
    0.72878694791104936535E+00
    0.74417253717692777304E+00
    0.55589964629988997125E+00
    0.61789984499943007012E+00
    0.58663545641826875254E+00
    0.62818953746312455877E+00
    0.61661387880033979858E+00
    0.73524060197531970751E+00
    0.73660070904892982480E+00
    0.71830787420472574922E+00
    0.72391257944543974112E+00
    0.71011254834832993055E+00
    0.68344845504399609482E+00
    0.70869750302279288512E+00
    0.70856164849882996570E+00
    0.68312578423657599469E+00
    0.55344157525653092655E+00
    0.53660923783712444202E+00
    0.53493109721533294021E+00
    0.72824502415358538521E+00
    0.74779922643344509670E+00
    0.74015772248971900549E+00
    0.72743196909554375118E+00
    0.73460149311688560658E+00
    0.74499443461781889031E+00
    0.74418165023222204724E+00
    0.74506688880044247281E+00
    0.74926256416592551535E+00
    0.74927924358595854315E+00
    0.74815299002033497366E+00
    0.74120398018996458411E+00
    0.72707208664070965831E+00
    0.73065551073573020702E+00
    0.71477864325342244101E+00
    0.65763175815634422605E+00
    0.67478884320296406152E+00
    0.60469915570237131597E+00
    0.64814736050134358347E+00
    0.73418252476481860036E+00
    0.74803285555639376092E+00
    0.74755401932860232606E+00
    0.65135334329925698160E+00
    0.67493249749451900144E+00
    0.74242907764523691228E+00
    0.73174894646257482300E+00
    0.72265573653289549849E+00
    0.74236790154270637654E+00
    0.74949044280359788939E+00
    0.74932917094719930784E+00
    0.72092224407436766853E+00
    0.71367909855933764351E+00
    0.74135387776894279277E+00
    0.68653612381125528330E+00
    0.71671899001665284601E+00
    0.72087385521152091972E+00
    0.74894996272163949502E+00
    0.74883775217153925041E+00
    0.73929951114930636535E+00
    0.65364199917226772918E+00
    0.67044722131123335451E+00
    0.69973748446084294006E+00
    0.73480836114803860237E+00
    0.73252928629802593896E+00
    0.70484499522301535812E+00
    0.72802290691599813588E+00
    0.71546329592151980403E+00
    0.69457382165743208891E+00
    0.68067163816542253230E+00
    0.60243530590114879875E+00
    0.64397481169192027917E+00
    0.65761830100868556848E+00
    0.73832103733327958395E+00
    0.69205346047244997720E+00
    0.72110016743409799389E+00
    0.72545523202884842906E+00
    0.74758310456488641371E+00
    0.73392022104468201960E+00
    0.74233106495163059257E+00
    0.74828276004874982874E+00
    0.63500047848545704277E+00
    0.61696326344770169303E+00
    0.57217309057089305036E+00
    0.69161112809450087102E+00
    0.70002424025043963329E+00
    0.74864659903068742075E+00
    0.74905302725311750933E+00
    0.71013690122023021001E+00
    0.71861862253269481737E+00
    0.72547477491763134871E+00
    0.73106859223766107458E+00
    0.66940904681559187939E+00
    0.67401789768271358483E+00
    0.72262371773434386224E+00
    0.74921039495159957866E+00
    0.74954248390027322646E+00
    0.64371671363706228775E+00
    0.74238569448968594333E+00
    0.72591677321854075622E+00
    0.59341907645885472178E+00
    0.74623267113225044689E+00
    0.64896540505925282005E+00
    0.72627440459720227217E+00
    0.69842352557223352783E+00
    0.73559547228350452563E+00
    0.69739889816666844613E+00
    0.74184652765603165125E+00
    0.74661630630073827497E+00
    0.73990176283969444349E+00
    0.70999025409108651452E+00
    0.67218595574652828528E+00
    0.74835142261907749983E+00
    0.66739442838127194246E+00
    0.70679183501966580394E+00
    0.55182202180232775568E+00
    0.74940794200915816781E+00
    0.73598429754709748796E+00
    0.73098062230341653844E+00
    0.74668117187319782424E+00
    0.74849361913043166439E+00
    0.66794985859600386480E+00
    0.65749180193185030596E+00
    0.60051496401040549422E+00
    0.60550975612248880697E+00
    0.74800487041555641099E+00
    0.74108470702324469315E+00
    0.72271073162515864219E+00
    0.70411311023753075933E+00
    0.70186438526306282881E+00
    0.71370217627786003423E+00
    0.73384572767668387883E+00
    0.74471578874147126292E+00
    0.74088613770338229703E+00
    0.74282487033355093509E+00
    0.74727646537118497250E+00
    0.74843974144804992221E+00
    0.73831050530208375271E+00
    0.71149386902211086969E+00
    0.68194435863718827484E+00
    0.69818946117698521547E+00
    0.70407403592147776994E+00
    0.70311755548969212537E+00
    0.69153477605062518840E+00
    0.67264184001975113603E+00
    0.64103647584456135977E+00
    0.73956790195212440686E+00
    0.74293801031184203421E+00
    0.74146696873254613891E+00
    0.73534189084568746253E+00
    0.72073055253070905657E+00
    0.69548453191534420625E+00
    0.65613048544823826536E+00
