# vtk DataFile Version 3.0
LAPLACIEN  2D
ASCII
DATASET UNSTRUCTURED_GRID
 POINTS         391  float
  0.50371505999999999       0.50367786999999997        0.0000000000000000     
  0.29013556000000001       0.29014535000000002        0.0000000000000000     
  0.70165584999999997       0.71206597999999999        0.0000000000000000     
  0.70304188999999995       0.30176619999999998        0.0000000000000000     
  0.30920671999999999       0.71149227999999998        0.0000000000000000     
  0.79044983999999996       0.49884783999999999        0.0000000000000000     
  0.49102621000000002       0.20968644000000000        0.0000000000000000     
  0.49912957000000002       0.77208717000000004        0.0000000000000000     
  0.21724072999999999       0.48989389000000000        0.0000000000000000     
  0.83255933999999998       0.83046598000000005        0.0000000000000000     
  0.16646774000000000       0.17015694000000001        0.0000000000000000     
  0.83054514999999995       0.16736480000000001        0.0000000000000000     
  0.16953130999999999       0.83265739000000005        0.0000000000000000     
  0.42166445000000002       0.36345201999999999        0.0000000000000000     
  0.64462200999999997       0.56347807999999999        0.0000000000000000     
  0.35324633999999999       0.56311191000000005        0.0000000000000000     
  0.65456411000000003       0.84856860999999995        0.0000000000000000     
  0.35141477999999998       0.15563974000000000        0.0000000000000000     
  0.15290967000000000       0.35206625000000003        0.0000000000000000     
  0.82942241000000005       0.34936866000000000        0.0000000000000000     
  0.84390527000000004       0.64441694999999999        0.0000000000000000     
  0.63699174999999997       0.14284276000000001        0.0000000000000000     
  0.15620682999999999       0.64648446999999998        0.0000000000000000     
  0.36426062999999997       0.85756310999999996        0.0000000000000000     
  0.63489340999999999       0.40519052000000000        0.0000000000000000     
  0.52518872999999999       0.65957078000000002        0.0000000000000000     
  0.32158959999999998       0.42298103999999997        0.0000000000000000     
  0.58861710000000000       0.31711036999999997        0.0000000000000000     
  0.42078418000000001       0.69497151999999995        0.0000000000000000     
  0.48608786999999998       0.89334152000000000        0.0000000000000000     
   9.7084320000000002E-002  0.50000000000000000        0.0000000000000000     
  0.90291568000000000       0.50000000000000000        0.0000000000000000     
  0.51392453000000005       0.10668648999999999        0.0000000000000000     
  0.59792566999999996       0.73122754000000001        0.0000000000000000     
  0.74510058999999995       0.41124730999999998        0.0000000000000000     
  0.73212551999999997       0.90191560000000004        0.0000000000000000     
   9.7784830000000003E-002  0.26957329000000002        0.0000000000000000     
  0.26711221000000002        9.8671499999999995E-002   0.0000000000000000     
  0.90191560000000004       0.26787448000000003        0.0000000000000000     
  0.90118569000000004       0.73039821000000005        0.0000000000000000     
  0.73122947000000005        9.8017859999999998E-002   0.0000000000000000     
   9.8084400000000002E-002  0.73212551999999997        0.0000000000000000     
  0.26957329000000002       0.90221516999999996        0.0000000000000000     
  0.39283522999999998       0.25360379000000000        0.0000000000000000     
  0.74480864000000002       0.60495284999999999        0.0000000000000000     
  0.25505132000000003       0.60593640999999998        0.0000000000000000     
  0.52159297999999998       0.40671636000000000        0.0000000000000000     
  0.40768852000000000       0.47699891000000000        0.0000000000000000     
   9.1467049999999994E-002   9.1876959999999994E-002   0.0000000000000000     
  0.90842484999999995       0.90819225000000003        0.0000000000000000     
  0.90820104999999995        9.1566729999999999E-002   0.0000000000000000     
   9.1807449999999999E-002  0.90843574000000005        0.0000000000000000     
  0.27098960000000000       0.20527094000000001        0.0000000000000000     
  0.73457293999999995       0.79835387000000002        0.0000000000000000     
  0.79817773000000003       0.25713470999999999        0.0000000000000000     
  0.20747797000000001       0.72863946000000002        0.0000000000000000     
  0.20175195000000001       0.27583914999999998        0.0000000000000000     
  0.79603889000000005       0.72159035000000005        0.0000000000000000     
  0.71761666000000002       0.19748431999999999        0.0000000000000000     
  0.28462607000000001       0.80251899999999998        0.0000000000000000     
  0.69134598999999997       0.49261972999999998        0.0000000000000000     
  0.44720578999999999       0.58582935999999997        0.0000000000000000     
  0.24242269999999999       0.37228174000000003        0.0000000000000000     
  0.38265623999999998       0.93072131999999996        0.0000000000000000     
  0.60971754000000000       0.91988369000000003        0.0000000000000000     
   7.9163609999999995E-002  0.60979116000000000        0.0000000000000000     
  0.92010649000000000       0.61081183999999999        0.0000000000000000     
  0.61954008999999999        7.1530830000000004E-002   0.0000000000000000     
  0.91882012999999996       0.38917363999999999        0.0000000000000000     
  0.39086346000000000        8.0652249999999995E-002   0.0000000000000000     
   7.9183480000000001E-002  0.38966213000000000        0.0000000000000000     
  0.59114111999999996       0.49294315000000000        0.0000000000000000     
  0.63337980999999999       0.64485914000000000        0.0000000000000000     
  0.50012352000000004       0.29676539000000002        0.0000000000000000     
  0.82552601000000003       0.92753492000000004        0.0000000000000000     
  0.92774772999999999       0.82498556999999995        0.0000000000000000     
   7.1970870000000006E-002  0.17510291000000000        0.0000000000000000     
  0.17422821999999999        7.2635640000000001E-002   0.0000000000000000     
  0.82510813000000005        7.2134840000000006E-002   0.0000000000000000     
  0.92754665000000003       0.17446275999999999        0.0000000000000000     
  0.17501022999999999       0.92789951999999998        0.0000000000000000     
   7.2464680000000004E-002  0.82554053000000005        0.0000000000000000     
  0.30731587999999999       0.50885354999999999        0.0000000000000000     
  0.59033407999999998       0.22171178999999999        0.0000000000000000     
  0.40109191999999999       0.78725542000000004        0.0000000000000000     
  0.35420917000000002       0.63754104000000000        0.0000000000000000     
  0.15983976999999999       0.56665573000000002        0.0000000000000000     
  0.84108459999999996       0.56757886999999996        0.0000000000000000     
  0.83902096000000004       0.43344338999999998        0.0000000000000000     
  0.43230028999999998       0.16004268999999999        0.0000000000000000     
  0.57536027999999995       0.83041363999999995        0.0000000000000000     
  0.15771898000000001       0.42747892999999998        0.0000000000000000     
  0.34021692999999997       0.34221559000000001        0.0000000000000000     
  0.56002271999999997       0.57501117999999996        0.0000000000000000     
  0.65344329000000001       0.78147597999999996        0.0000000000000000     
   0.0000000000000000        0.0000000000000000        0.0000000000000000     
   1.0000000000000000        0.0000000000000000        0.0000000000000000     
   1.0000000000000000        1.0000000000000000        0.0000000000000000     
   0.0000000000000000        1.0000000000000000        0.0000000000000000     
  0.11111111000000000        0.0000000000000000        0.0000000000000000     
  0.22222222000000000        0.0000000000000000        0.0000000000000000     
  0.33333332999999998        0.0000000000000000        0.0000000000000000     
  0.44444444000000000        0.0000000000000000        0.0000000000000000     
  0.55555555999999995        0.0000000000000000        0.0000000000000000     
  0.66666667000000002        0.0000000000000000        0.0000000000000000     
  0.77777777999999997        0.0000000000000000        0.0000000000000000     
  0.88888889000000004        0.0000000000000000        0.0000000000000000     
   1.0000000000000000       0.11111111000000000        0.0000000000000000     
   1.0000000000000000       0.22222222000000000        0.0000000000000000     
   1.0000000000000000       0.33333332999999998        0.0000000000000000     
   1.0000000000000000       0.44444444000000000        0.0000000000000000     
   1.0000000000000000       0.55555555999999995        0.0000000000000000     
   1.0000000000000000       0.66666667000000002        0.0000000000000000     
   1.0000000000000000       0.77777777999999997        0.0000000000000000     
   1.0000000000000000       0.88888889000000004        0.0000000000000000     
  0.88888889000000004        1.0000000000000000        0.0000000000000000     
  0.77777777999999997        1.0000000000000000        0.0000000000000000     
  0.66666667000000002        1.0000000000000000        0.0000000000000000     
  0.55555555999999995        1.0000000000000000        0.0000000000000000     
  0.44444444000000000        1.0000000000000000        0.0000000000000000     
  0.33333332999999998        1.0000000000000000        0.0000000000000000     
  0.22222222000000000        1.0000000000000000        0.0000000000000000     
  0.11111111000000000        1.0000000000000000        0.0000000000000000     
   0.0000000000000000       0.11111111000000000        0.0000000000000000     
   0.0000000000000000       0.22222222000000000        0.0000000000000000     
[...]
 CELL_DATA         354
 SCALARS E float
 LOOKUP_TABLE default
    0.73738757102018270828E+00
    0.74385208480510556228E+00
    0.67375663877700853188E+00
    0.61716920866324254114E+00
    0.74665159845762851809E+00
    0.74832453989404690287E+00
    0.73993204720245409067E+00
    0.74751724906896499512E+00
    0.73064174327081476967E+00
    0.71681939141525474746E+00
    0.68454473257941172992E+00
    0.70315035947174631126E+00
    0.67773864754427726176E+00
    0.68221189722432962199E+00
    0.69207655188830552451E+00
    0.68603503797843645717E+00
    0.70326987564320253554E+00
    0.71982772923598048465E+00
    0.73937509555217018065E+00
    0.73077188073642829202E+00
    0.74185744876740677967E+00
    0.73896588207777291757E+00
    0.72946387854736161049E+00
    0.73543977804092441897E+00
    0.72811164912080683642E+00
    0.73171419972571660750E+00
    0.73894542047310429744E+00
    0.73490561785792163363E+00
    0.74262573112020247024E+00
    0.74792166748535837684E+00
    0.74631306818597054065E+00
    0.74800132928434504009E+00
    0.73871031869973435846E+00
    0.72797014141826466016E+00
    0.69713794924173411172E+00
    0.71225303665804506892E+00
    0.68608135511690326869E+00
    0.69271882053876498997E+00
    0.71078799632927425201E+00
    0.70180698687984799378E+00
    0.71586332573133792945E+00
    0.71687480540983883337E+00
    0.71984738474148723952E+00
    0.71817507675198466455E+00
    0.71680984965993033153E+00
    0.70844623803806383577E+00
    0.69573329598272570795E+00
    0.70111239626508004008E+00
    0.68399050291689067471E+00
    0.66741383455301872552E+00
    0.63731371647544432513E+00
    0.65064561596816605782E+00
    0.74187347359649324918E+00
    0.74334855352334427980E+00
    0.74620956528193316259E+00
    0.74533751600782705005E+00
    0.74636860040707431185E+00
    0.74607334405561609447E+00
    0.74379312090524207779E+00
    0.74491746103729861161E+00
    0.73978499587295087903E+00
    0.73418762733160403133E+00
    0.71557665580180374043E+00
    0.72542171024108548227E+00
    0.70035000060730334681E+00
    0.68155992923287056495E+00
    0.64268391110401057453E+00
    0.66066170241936739149E+00
    0.63033169564847557620E+00
    0.66379113409505419163E+00
    0.68367349097764229526E+00
    0.64800159563139392294E+00
    0.67460604820784342284E+00
    0.67372560057047115034E+00
    0.70248146336008465695E+00
    0.71565202035895725263E+00
    0.70887275540511363037E+00
    0.68500611605058114861E+00
    0.74293823568107564270E+00
    0.73380603994501403253E+00
    0.74797381306886867591E+00
    0.74567863848415871786E+00
    0.73356035641020345128E+00
    0.74701878618295469714E+00
    0.63943890976671169390E+00
    0.58804812466999389908E+00
    0.55664028284707023353E+00
    0.62077302921544719183E+00
    0.63152686052233097946E+00
    0.60756738557349998509E+00
    0.57224303393279762897E+00
    0.74732009694371270836E+00
    0.74832393322992551976E+00
    0.74794526654913751074E+00
    0.74694073629935764380E+00
    0.74946406897388762047E+00
    0.74562930055260778772E+00
    0.71547690761954085836E+00
    0.67295531161785460128E+00
    0.70732661392635498565E+00
    0.68020055296714110327E+00
    0.71594768295797928115E+00
    0.69697523673723660309E+00
    0.61956716250653320888E+00
    0.61659832886149090747E+00
    0.57986284279494659799E+00
    0.57994310172981955454E+00
    0.62548725055995113564E+00
    0.74049386409833350964E+00
    0.74587954976036618948E+00
    0.74639669874861969134E+00
    0.74636295712377764833E+00
    0.74935674522622286453E+00
    0.74898464855588520184E+00
    0.71971505011089798032E+00
    0.74663821772939498178E+00
    0.74252990859744838481E+00
    0.72947653465739881185E+00
    0.72986845844549752549E+00
    0.74605715602832334277E+00
    0.74227981981997492866E+00
    0.73664001540665025036E+00
    0.74472514018310953521E+00
    0.72427558691817761627E+00
    0.74578133594294038211E+00
    0.74706980315488313860E+00
    0.72664513679267372925E+00
    0.73465769047641726885E+00
    0.74665252468486464910E+00
    0.73668530008580035418E+00
    0.74801007493956461758E+00
    0.72996721424465538242E+00
    0.73814085377278837452E+00
    0.74793637888882302800E+00
    0.74578216306317846040E+00
    0.70184028279549071083E+00
    0.68339068269292457813E+00
    0.71666351324160970648E+00
    0.67668629564956028766E+00
    0.66287385822765654275E+00
    0.70533590450020566820E+00
    0.71354050956362824465E+00
    0.71952921812113657118E+00
    0.71367010512011253009E+00
    0.68713749951024560847E+00
    0.73141073187012506374E+00
    0.72946185768881532940E+00
    0.69532247345897324475E+00
    0.69999234038795554724E+00
    0.66376494986809775334E+00
    0.63062115095634108108E+00
    0.61016569969193401590E+00
    0.64981833150677337230E+00
    0.59697424619709871241E+00
    0.65261718159181170140E+00
    0.70356767989493762538E+00
    0.67588786204386275269E+00
    0.66651585831623949563E+00
    0.70580928334786896539E+00
    0.68845309928535147748E+00
    0.73484293939110090221E+00
    0.70110531057013536493E+00
    0.71404839774431660970E+00
    0.72042895242642690512E+00
    0.73070765095143652701E+00
    0.74090740471328342398E+00
    0.74774469481749139543E+00
    0.74087152280369983348E+00
    0.74721520292774779026E+00
    0.74878214166127743390E+00
    0.70926130068878301405E+00
    0.66758858344967564324E+00
    0.69838724577070110389E+00
    0.69289971103908742922E+00
    0.66826744632545220792E+00
    0.74698507654009804746E+00
    0.73819810904676752550E+00
    0.73397279347458610488E+00
    0.74810696337521220833E+00
    0.74409140036879883873E+00
    0.65931832469790463414E+00
    0.69552215370075998191E+00
    0.66731912761200273820E+00
    0.70229664189294904730E+00
    0.68784884863638640073E+00
    0.74831907280120479875E+00
    0.73501444152043626801E+00
    0.74616348912830066098E+00
    0.74645664699900549088E+00
    0.73759584609281736434E+00
    0.63149645568153534025E+00
    0.65077581020065100592E+00
    0.62413041604202335044E+00
    0.64710795648158758731E+00
    0.59983027553660428488E+00
    0.73815142428949809261E+00
    0.74809659030271757896E+00
    0.74541722240828545143E+00
    0.74396644166699876788E+00
    0.74863496709803256657E+00
    0.73793014786064881072E+00
    0.72730249193164753230E+00
    0.73928465648104091379E+00
    0.72868093868777328304E+00
    0.74396962082960227391E+00
    0.55893399551497058297E+00
    0.61783244833394534989E+00
    0.58773636862652467450E+00
    0.62850530559128969799E+00
    0.61684536210643148291E+00
    0.73529492071566493472E+00
    0.73645570476171273722E+00
    0.71820605187745845122E+00
    0.72394719940152296722E+00
    0.71015379680596835144E+00
    0.68319315266975033651E+00
    0.70914861963930697630E+00
    0.70855808774127027050E+00
    0.68334069072808989453E+00
    0.55685304926222445321E+00
    0.54200500640133220109E+00
    0.54138261771122020427E+00
    0.72813886400256611076E+00
    0.74776059152574958500E+00
    0.74018206572111866492E+00
    0.72709632294023429644E+00
    0.73470044385808075393E+00
    0.74521453145875604651E+00
    0.74441394624592072127E+00
    0.74515577826264323136E+00
    0.74943546961462303990E+00
    0.74928094417930979354E+00
    0.74855853541910133409E+00
    0.74129901899565764367E+00
    0.72731019816478115203E+00
    0.73064847911114327861E+00
    0.71542056775248830114E+00
    0.65683997083272616102E+00
    0.67510304716249303070E+00
    0.60635003150296529206E+00
    0.64870119814715343498E+00
    0.73416277592751955083E+00
    0.74800979820052426739E+00
    0.74727916412481287800E+00
    0.65142135551768731716E+00
    0.67448018936093079301E+00
    0.74260477814253544881E+00
    0.73199091165636809286E+00
    0.72241793054133562890E+00
    0.74251168004090317698E+00
    0.74964844316177059458E+00
    0.74905414400810421682E+00
    0.72119544290543013965E+00
    0.71423449377748526867E+00
    0.74091830662918711781E+00
    0.68715201615137599944E+00
    0.71675690444208717267E+00
    0.72037586568639899731E+00
    0.74913709901363034760E+00
    0.74915829687559931660E+00
    0.73898171555381275688E+00
    0.65420207867227975207E+00
    0.67097075248269610892E+00
    0.69913849192504540220E+00
    0.73496091172324651275E+00
    0.73276565396283510623E+00
    0.70457812916177797735E+00
    0.72811131530076245166E+00
    0.71560189418548170170E+00
    0.69432964319573509115E+00
    0.68045701085886878268E+00
    0.60387843942626862059E+00
    0.64392229813994861232E+00
    0.65717637323711686204E+00
    0.73808000221222136439E+00
    0.69260746715834453635E+00
    0.72119130001168485489E+00
    0.72509783823048312712E+00
    0.74741019195463931357E+00
    0.73455591661590724506E+00
    0.74261154029587161940E+00
    0.74794346226032615288E+00
    0.63541256727519235259E+00
    0.61682606516091753601E+00
    0.57422048753556986789E+00
    0.69159302665249455799E+00
    0.69965395906683436333E+00
    0.74860685345856414763E+00
    0.74904194354548492285E+00
    0.71011194872745497797E+00
    0.71863538064970788888E+00
    0.72550496888153470643E+00
    0.73103716477277635999E+00
    0.66939830173024050808E+00
    0.67401200703950969739E+00
    0.72288923368756918819E+00
    0.74927646031411210270E+00
    0.74966201308567770312E+00
    0.64400745069054166070E+00
    0.74249364642909521095E+00
    0.72585437260019558536E+00
    0.59308967592243788669E+00
    0.74598671295238239143E+00
    0.64895489199756939414E+00
    0.72604585081436734395E+00
    0.69864640698017443921E+00
    0.73500996946014351963E+00
    0.69776662966062985571E+00
    0.74210021866751807451E+00
    0.74678371705234969369E+00
    0.74008232168747700719E+00
    0.71040250418505301866E+00
    0.67279164546125258539E+00
    0.74863179169450821959E+00
    0.66753006262633396428E+00
    0.70716639682104631692E+00
    0.55464019408175901926E+00
    0.74938868235179645350E+00
    0.73576077770128445188E+00
    0.73034987041503585115E+00
    0.74621114023677470595E+00
    0.74773725999226559047E+00
    0.66773942032535960056E+00
    0.65701246918395928009E+00
    0.60014778715506356122E+00
    0.60523455058747077651E+00
    0.74761490903774319161E+00
    0.74016936583535730687E+00
    0.72160231175233002787E+00
    0.70277585888784244172E+00
    0.70037814218925587006E+00
    0.71236265058129744077E+00
    0.73310406017948048785E+00
    0.74382661249504222756E+00
    0.73977867825326526496E+00
    0.74176991763273769642E+00
    0.74637647842526277930E+00
    0.74774085573605475474E+00
    0.73772030516109632359E+00
    0.71119472320638688068E+00
    0.68144040957766571776E+00
    0.69754866547241090036E+00
    0.70342284682636468940E+00
    0.70244016083216720414E+00
    0.69092888103057914506E+00
    0.67206468868032043229E+00
    0.64062632479876657765E+00
    0.73890814728575604509E+00
    0.74216330146898967790E+00
    0.74071676157793564510E+00
    0.73465332855259379841E+00
    0.72013713955876468287E+00
    0.69492632378902974288E+00
    0.65579137772437212650E+00
