# vtk DataFile Version 3.0
LAPLACIEN  2D
ASCII
DATASET UNSTRUCTURED_GRID
 POINTS         391  float
  0.50371505999999999       0.50367786999999997        0.0000000000000000     
  0.29013556000000001       0.29014535000000002        0.0000000000000000     
  0.70165584999999997       0.71206597999999999        0.0000000000000000     
  0.70304188999999995       0.30176619999999998        0.0000000000000000     
  0.30920671999999999       0.71149227999999998        0.0000000000000000     
  0.79044983999999996       0.49884783999999999        0.0000000000000000     
  0.49102621000000002       0.20968644000000000        0.0000000000000000     
  0.49912957000000002       0.77208717000000004        0.0000000000000000     
  0.21724072999999999       0.48989389000000000        0.0000000000000000     
  0.83255933999999998       0.83046598000000005        0.0000000000000000     
  0.16646774000000000       0.17015694000000001        0.0000000000000000     
  0.83054514999999995       0.16736480000000001        0.0000000000000000     
  0.16953130999999999       0.83265739000000005        0.0000000000000000     
  0.42166445000000002       0.36345201999999999        0.0000000000000000     
  0.64462200999999997       0.56347807999999999        0.0000000000000000     
  0.35324633999999999       0.56311191000000005        0.0000000000000000     
  0.65456411000000003       0.84856860999999995        0.0000000000000000     
  0.35141477999999998       0.15563974000000000        0.0000000000000000     
  0.15290967000000000       0.35206625000000003        0.0000000000000000     
  0.82942241000000005       0.34936866000000000        0.0000000000000000     
  0.84390527000000004       0.64441694999999999        0.0000000000000000     
  0.63699174999999997       0.14284276000000001        0.0000000000000000     
  0.15620682999999999       0.64648446999999998        0.0000000000000000     
  0.36426062999999997       0.85756310999999996        0.0000000000000000     
  0.63489340999999999       0.40519052000000000        0.0000000000000000     
  0.52518872999999999       0.65957078000000002        0.0000000000000000     
  0.32158959999999998       0.42298103999999997        0.0000000000000000     
  0.58861710000000000       0.31711036999999997        0.0000000000000000     
  0.42078418000000001       0.69497151999999995        0.0000000000000000     
  0.48608786999999998       0.89334152000000000        0.0000000000000000     
   9.7084320000000002E-002  0.50000000000000000        0.0000000000000000     
  0.90291568000000000       0.50000000000000000        0.0000000000000000     
  0.51392453000000005       0.10668648999999999        0.0000000000000000     
  0.59792566999999996       0.73122754000000001        0.0000000000000000     
  0.74510058999999995       0.41124730999999998        0.0000000000000000     
  0.73212551999999997       0.90191560000000004        0.0000000000000000     
   9.7784830000000003E-002  0.26957329000000002        0.0000000000000000     
  0.26711221000000002        9.8671499999999995E-002   0.0000000000000000     
  0.90191560000000004       0.26787448000000003        0.0000000000000000     
  0.90118569000000004       0.73039821000000005        0.0000000000000000     
  0.73122947000000005        9.8017859999999998E-002   0.0000000000000000     
   9.8084400000000002E-002  0.73212551999999997        0.0000000000000000     
  0.26957329000000002       0.90221516999999996        0.0000000000000000     
  0.39283522999999998       0.25360379000000000        0.0000000000000000     
  0.74480864000000002       0.60495284999999999        0.0000000000000000     
  0.25505132000000003       0.60593640999999998        0.0000000000000000     
  0.52159297999999998       0.40671636000000000        0.0000000000000000     
  0.40768852000000000       0.47699891000000000        0.0000000000000000     
   9.1467049999999994E-002   9.1876959999999994E-002   0.0000000000000000     
  0.90842484999999995       0.90819225000000003        0.0000000000000000     
  0.90820104999999995        9.1566729999999999E-002   0.0000000000000000     
   9.1807449999999999E-002  0.90843574000000005        0.0000000000000000     
  0.27098960000000000       0.20527094000000001        0.0000000000000000     
  0.73457293999999995       0.79835387000000002        0.0000000000000000     
  0.79817773000000003       0.25713470999999999        0.0000000000000000     
  0.20747797000000001       0.72863946000000002        0.0000000000000000     
  0.20175195000000001       0.27583914999999998        0.0000000000000000     
  0.79603889000000005       0.72159035000000005        0.0000000000000000     
  0.71761666000000002       0.19748431999999999        0.0000000000000000     
  0.28462607000000001       0.80251899999999998        0.0000000000000000     
  0.69134598999999997       0.49261972999999998        0.0000000000000000     
  0.44720578999999999       0.58582935999999997        0.0000000000000000     
  0.24242269999999999       0.37228174000000003        0.0000000000000000     
  0.38265623999999998       0.93072131999999996        0.0000000000000000     
  0.60971754000000000       0.91988369000000003        0.0000000000000000     
   7.9163609999999995E-002  0.60979116000000000        0.0000000000000000     
  0.92010649000000000       0.61081183999999999        0.0000000000000000     
  0.61954008999999999        7.1530830000000004E-002   0.0000000000000000     
  0.91882012999999996       0.38917363999999999        0.0000000000000000     
  0.39086346000000000        8.0652249999999995E-002   0.0000000000000000     
   7.9183480000000001E-002  0.38966213000000000        0.0000000000000000     
  0.59114111999999996       0.49294315000000000        0.0000000000000000     
  0.63337980999999999       0.64485914000000000        0.0000000000000000     
  0.50012352000000004       0.29676539000000002        0.0000000000000000     
  0.82552601000000003       0.92753492000000004        0.0000000000000000     
  0.92774772999999999       0.82498556999999995        0.0000000000000000     
   7.1970870000000006E-002  0.17510291000000000        0.0000000000000000     
  0.17422821999999999        7.2635640000000001E-002   0.0000000000000000     
  0.82510813000000005        7.2134840000000006E-002   0.0000000000000000     
  0.92754665000000003       0.17446275999999999        0.0000000000000000     
  0.17501022999999999       0.92789951999999998        0.0000000000000000     
   7.2464680000000004E-002  0.82554053000000005        0.0000000000000000     
  0.30731587999999999       0.50885354999999999        0.0000000000000000     
  0.59033407999999998       0.22171178999999999        0.0000000000000000     
  0.40109191999999999       0.78725542000000004        0.0000000000000000     
  0.35420917000000002       0.63754104000000000        0.0000000000000000     
  0.15983976999999999       0.56665573000000002        0.0000000000000000     
  0.84108459999999996       0.56757886999999996        0.0000000000000000     
  0.83902096000000004       0.43344338999999998        0.0000000000000000     
  0.43230028999999998       0.16004268999999999        0.0000000000000000     
  0.57536027999999995       0.83041363999999995        0.0000000000000000     
  0.15771898000000001       0.42747892999999998        0.0000000000000000     
  0.34021692999999997       0.34221559000000001        0.0000000000000000     
  0.56002271999999997       0.57501117999999996        0.0000000000000000     
  0.65344329000000001       0.78147597999999996        0.0000000000000000     
   0.0000000000000000        0.0000000000000000        0.0000000000000000     
   1.0000000000000000        0.0000000000000000        0.0000000000000000     
   1.0000000000000000        1.0000000000000000        0.0000000000000000     
   0.0000000000000000        1.0000000000000000        0.0000000000000000     
  0.11111111000000000        0.0000000000000000        0.0000000000000000     
  0.22222222000000000        0.0000000000000000        0.0000000000000000     
  0.33333332999999998        0.0000000000000000        0.0000000000000000     
  0.44444444000000000        0.0000000000000000        0.0000000000000000     
  0.55555555999999995        0.0000000000000000        0.0000000000000000     
  0.66666667000000002        0.0000000000000000        0.0000000000000000     
  0.77777777999999997        0.0000000000000000        0.0000000000000000     
  0.88888889000000004        0.0000000000000000        0.0000000000000000     
   1.0000000000000000       0.11111111000000000        0.0000000000000000     
   1.0000000000000000       0.22222222000000000        0.0000000000000000     
   1.0000000000000000       0.33333332999999998        0.0000000000000000     
   1.0000000000000000       0.44444444000000000        0.0000000000000000     
   1.0000000000000000       0.55555555999999995        0.0000000000000000     
   1.0000000000000000       0.66666667000000002        0.0000000000000000     
   1.0000000000000000       0.77777777999999997        0.0000000000000000     
   1.0000000000000000       0.88888889000000004        0.0000000000000000     
  0.88888889000000004        1.0000000000000000        0.0000000000000000     
  0.77777777999999997        1.0000000000000000        0.0000000000000000     
  0.66666667000000002        1.0000000000000000        0.0000000000000000     
  0.55555555999999995        1.0000000000000000        0.0000000000000000     
  0.44444444000000000        1.0000000000000000        0.0000000000000000     
  0.33333332999999998        1.0000000000000000        0.0000000000000000     
  0.22222222000000000        1.0000000000000000        0.0000000000000000     
  0.11111111000000000        1.0000000000000000        0.0000000000000000     
   0.0000000000000000       0.11111111000000000        0.0000000000000000     
   0.0000000000000000       0.22222222000000000        0.0000000000000000     
[...]
 CELL_DATA         354
 SCALARS E float
 LOOKUP_TABLE default
    0.73506623449073149601E+00
    0.74062030400674283559E+00
    0.67186939628900799182E+00
    0.61540907344992801242E+00
    0.74629376209389008956E+00
    0.74720090677457462469E+00
    0.73653211702769738611E+00
    0.74551583828513290353E+00
    0.72704524357134359125E+00
    0.71350251546936716007E+00
    0.67906979842996917363E+00
    0.69822030596724504736E+00
    0.67352307701909119864E+00
    0.67734126238027869693E+00
    0.68691444680256918964E+00
    0.68076638181904391978E+00
    0.69881879825191717259E+00
    0.71682742445412361842E+00
    0.73827723719739113406E+00
    0.72873948868440030502E+00
    0.73963846972289370996E+00
    0.73656624552347094159E+00
    0.72590857801749331113E+00
    0.73234690882276454182E+00
    0.72324044979349322304E+00
    0.72727308686661296111E+00
    0.73574923561339733435E+00
    0.73156797024118247474E+00
    0.73927250310227732299E+00
    0.74515844120932606121E+00
    0.74409835586562156351E+00
    0.74589228871028911971E+00
    0.73639469337587093456E+00
    0.72643484431368965382E+00
    0.69671934779462374454E+00
    0.71139496274485669591E+00
    0.68463716026384680013E+00
    0.69138057871259839260E+00
    0.70867890515619080816E+00
    0.70003103205458461211E+00
    0.71315296645562531452E+00
    0.71443275446744769486E+00
    0.71706179101493983108E+00
    0.71577723846961516241E+00
    0.71440255638863925380E+00
    0.70631926176978065968E+00
    0.69344978821278713266E+00
    0.69885603280797203851E+00
    0.68194402007554255629E+00
    0.66580119715799090940E+00
    0.63624967556541445202E+00
    0.64952587217773571915E+00
    0.73988239856647231019E+00
    0.74156083295640917719E+00
    0.74365071860598164211E+00
    0.74304130830279957465E+00
    0.74302228221064048341E+00
    0.74306002667768955572E+00
    0.74133059748040697201E+00
    0.74250066587917107341E+00
    0.73718956932315948816E+00
    0.73196673983488846904E+00
    0.71333435219142726780E+00
    0.72341387156329239883E+00
    0.69829499273282813476E+00
    0.68008824357474417788E+00
    0.64199533372201722514E+00
    0.65972573191425887273E+00
    0.62951192491079122071E+00
    0.66420771135596168300E+00
    0.68650376866843187962E+00
    0.64756720576061543859E+00
    0.67693079959316038163E+00
    0.67194975490830111120E+00
    0.70184823952767405597E+00
    0.71683396670679222495E+00
    0.71068992403916131373E+00
    0.68583769054872667503E+00
    0.74163827250432157179E+00
    0.73223077417094328823E+00
    0.74796618370054845926E+00
    0.74493360366651384386E+00
    0.73348521038929426208E+00
    0.74500770810834437974E+00
    0.64033174846032370198E+00
    0.59500068705097486355E+00
    0.58010120551946542378E+00
    0.62151398136288360519E+00
    0.63290971897559689108E+00
    0.60688468973453957300E+00
    0.58446655760503252175E+00
    0.74887705432944295936E+00
    0.74900498499602008451E+00
    0.74811480776662309111E+00
    0.74684215373133744365E+00
    0.74958606539354089016E+00
    0.74747511709008784830E+00
    0.71634477365865534271E+00
    0.67256224018269183951E+00
    0.70702524298073265996E+00
    0.68163254966695197012E+00
    0.71374694123278992208E+00
    0.69801815417629742289E+00
    0.62300276962098866118E+00
    0.62057986080771920800E+00
    0.58285398483889983012E+00
    0.58210027047024537339E+00
    0.62534634305742131666E+00
    0.74068079189425728437E+00
    0.74526631502437368226E+00
    0.74792452428193412217E+00
    0.74591393526398175329E+00
    0.74998601516725627025E+00
    0.74866301939318025127E+00
    0.72162466893497789755E+00
    0.74700618371849747401E+00
    0.74251935225356002768E+00
    0.72877211686187948203E+00
    0.73130271068841379289E+00
    0.74402870486980465792E+00
    0.74102063792978634105E+00
    0.73633404910965805090E+00
    0.74418578524295009302E+00
    0.72387416668839899003E+00
    0.74675467187979960304E+00
    0.74772599063647682271E+00
    0.72510252005736153258E+00
    0.73353176418521415236E+00
    0.74569031828548126839E+00
    0.73594004785194644391E+00
    0.74734091126745771927E+00
    0.73138172257890821104E+00
    0.73901874647208076752E+00
    0.74610582717918494389E+00
    0.74398811990554702955E+00
    0.70175567506683422803E+00
    0.68281748289132360163E+00
    0.71602386263693218460E+00
    0.67916809829751612071E+00
    0.66515378312270856398E+00
    0.70267807759005118662E+00
    0.71058992624078265443E+00
    0.71894419156947408922E+00
    0.71296810846643110526E+00
    0.68672127481395417448E+00
    0.73214097455815785320E+00
    0.72998918147233027298E+00
    0.69408106490676080291E+00
    0.69875569663169156964E+00
    0.66332467753875457017E+00
    0.63100551822180173112E+00
    0.61358339187907251500E+00
    0.65098407362769983298E+00
    0.60092236184043001934E+00
    0.65130470748576452245E+00
    0.70652717601423931093E+00
    0.67644835868686414848E+00
    0.66539372076460667760E+00
    0.70781831842614151284E+00
    0.68958680204620625975E+00
    0.73732230125088915607E+00
    0.69853470606641276941E+00
    0.71274082297999441504E+00
    0.72085234687535260090E+00
    0.73112621197729010802E+00
    0.74258967148678012293E+00
    0.74851311721297331125E+00
    0.74290159999462890283E+00
    0.74687573584740563071E+00
    0.74872816191519997453E+00
    0.71251629924718606901E+00
    0.66786309827227885449E+00
    0.69912940956220270827E+00
    0.69607878935509337470E+00
    0.66840414242848400495E+00
    0.74872231087173291009E+00
    0.73775189157268661333E+00
    0.73258424481610817658E+00
    0.75003599614137117513E+00
    0.74390353439837841876E+00
    0.65824841557659707902E+00
    0.69755665982375258949E+00
    0.66781628135854020911E+00
    0.70444342895695410967E+00
    0.68713576443360124824E+00
    0.75024492660141661737E+00
    0.73406032765257944739E+00
    0.74601264753717033695E+00
    0.74814735435010382147E+00
    0.73698231643702294402E+00
    0.63143702835238402216E+00
    0.65428035142953733239E+00
    0.62447350046350935671E+00
    0.64624175718134335700E+00
    0.60415256777271808541E+00
    0.73974030860773976048E+00
    0.74706083426051661522E+00
    0.74496349750221124708E+00
    0.74547102324605329926E+00
    0.74822973593245967194E+00
    0.73631535272801151848E+00
    0.72835078726693047724E+00
    0.73858713069093173686E+00
    0.72814954257778774505E+00
    0.74298472606486809511E+00
    0.57403257081266878536E+00
    0.61758549106826188257E+00
    0.59327471943872978066E+00
    0.63006106069789769020E+00
    0.61804465761752491737E+00
    0.73555246418200215253E+00
    0.73575323240995260665E+00
    0.71773206867727212810E+00
    0.72413806532288660378E+00
    0.71039730493649344556E+00
    0.68195223552946082624E+00
    0.71136548491862028332E+00
    0.70852984237633243048E+00
    0.68439464888573442458E+00
    0.57379387658960534502E+00
    0.56864575359001678923E+00
    0.57310227907001864978E+00
    0.72759971459654226855E+00
    0.74757902500515460709E+00
    0.74028632778447411855E+00
    0.72542406154523142447E+00
    0.73519650391274826706E+00
    0.74630896475761354658E+00
    0.74555302812535739765E+00
    0.74558873661933489085E+00
    0.75030391389551187586E+00
    0.74928152603484843297E+00
    0.75053027410110473294E+00
    0.74175520656870208569E+00
    0.72850704277402666964E+00
    0.73062214851917883784E+00
    0.71856148579789225206E+00
    0.65301855031621502956E+00
    0.67665376199298665760E+00
    0.61447021054044992372E+00
    0.65142873796028988309E+00
    0.73407056802913617233E+00
    0.74788656492369698370E+00
    0.74593014215669528610E+00
    0.65175265608533661243E+00
    0.67225580310092514225E+00
    0.74347585989109477023E+00
    0.73319052851466237630E+00
    0.72124725891674201783E+00
    0.74321843464336656560E+00
    0.75043843983122893171E+00
    0.74768929345653978302E+00
    0.72254767076531756231E+00
    0.71698165858056084332E+00
    0.73876333492247536761E+00
    0.69015409786162651429E+00
    0.71696846551841009187E+00
    0.71795993132642799139E+00
    0.75005657352202037558E+00
    0.75074692997857339627E+00
    0.73740638752012643842E+00
    0.65695022624788357302E+00
    0.67355964952137958868E+00
    0.69621216191404156071E+00
    0.73570848266658483983E+00
    0.73394053208973619729E+00
    0.70325452597773185914E+00
    0.72854238098231993703E+00
    0.71628570190962581599E+00
    0.69311669085811411506E+00
    0.67939253593344384186E+00
    0.61099659363649327926E+00
    0.64372016637587625709E+00
    0.65502091496102443635E+00
    0.73687191073536562058E+00
    0.69532706612083305941E+00
    0.72168424141688847229E+00
    0.72334084432107459417E+00
    0.74656584998317077062E+00
    0.73766882701381308873E+00
    0.74401422957993934570E+00
    0.74628480287541354432E+00
    0.63746091069910926219E+00
    0.61621325952420158423E+00
    0.58444726374853772644E+00
    0.69150787665062718457E+00
    0.69779997789649561568E+00
    0.74839388722503585871E+00
    0.74895779923917771281E+00
    0.70997670113520172652E+00
    0.71870425941554094695E+00
    0.72561379447806162446E+00
    0.73085129087842315432E+00
    0.66933577545153122301E+00
    0.67397218475210163291E+00
    0.72419034525277625747E+00
    0.74959699970212967379E+00
    0.75023247187490493815E+00
    0.64543538437194014623E+00
    0.74302639030708317325E+00
    0.72557428030897086479E+00
    0.59166622440870120236E+00
    0.74477677120176632997E+00
    0.64892468844707063003E+00
    0.72490144801029654520E+00
    0.69977828715413448180E+00
    0.73214776091257560697E+00
    0.69958000577831680467E+00
    0.74334541727195257987E+00
    0.74759762321457645662E+00
    0.74095467281847837704E+00
    0.71242372443880042088E+00
    0.67574738953569357669E+00
    0.75001416250360730675E+00
    0.66818636551752674801E+00
    0.70901186130354532100E+00
    0.56870100514282251325E+00
    0.74928916027864422844E+00
    0.73464097657150895238E+00
    0.72720185066806186658E+00
    0.74386427119426223875E+00
    0.74395864643221032431E+00
    0.66668555501559711995E+00
    0.65462032665911551454E+00
    0.59831416377369794901E+00
    0.60385883856210442744E+00
    0.74566464452215219794E+00
    0.73561111158052661096E+00
    0.71605317453118710880E+00
    0.69609352989997475003E+00
    0.69295231318743932825E+00
    0.70567384478089900668E+00
    0.72939868522162842890E+00
    0.73938685696146366766E+00
    0.73423595018099307996E+00
    0.73648930245795107830E+00
    0.74188127778864365602E+00
    0.74424584005445149071E+00
    0.73477897744000908453E+00
    0.70969853291812645679E+00
    0.67892415758510260559E+00
    0.69434540760932250691E+00
    0.70016649166490307898E+00
    0.69905430188600437003E+00
    0.68790069923379271177E+00
    0.66918121916128181503E+00
    0.63857744444576092224E+00
    0.73561397848291565360E+00
    0.73828832536043054180E+00
    0.73696389181350607789E+00
    0.73121278612903073402E+00
    0.71716979656345114513E+00
    0.69213931929370409168E+00
    0.65409694077377666943E+00
