# vtk DataFile Version 3.0
LAPLACIEN  2D
ASCII
DATASET UNSTRUCTURED_GRID
 POINTS         391  float
  0.50371505999999999       0.50367786999999997        0.0000000000000000     
  0.29013556000000001       0.29014535000000002        0.0000000000000000     
  0.70165584999999997       0.71206597999999999        0.0000000000000000     
  0.70304188999999995       0.30176619999999998        0.0000000000000000     
  0.30920671999999999       0.71149227999999998        0.0000000000000000     
  0.79044983999999996       0.49884783999999999        0.0000000000000000     
  0.49102621000000002       0.20968644000000000        0.0000000000000000     
  0.49912957000000002       0.77208717000000004        0.0000000000000000     
  0.21724072999999999       0.48989389000000000        0.0000000000000000     
  0.83255933999999998       0.83046598000000005        0.0000000000000000     
  0.16646774000000000       0.17015694000000001        0.0000000000000000     
  0.83054514999999995       0.16736480000000001        0.0000000000000000     
  0.16953130999999999       0.83265739000000005        0.0000000000000000     
  0.42166445000000002       0.36345201999999999        0.0000000000000000     
  0.64462200999999997       0.56347807999999999        0.0000000000000000     
  0.35324633999999999       0.56311191000000005        0.0000000000000000     
  0.65456411000000003       0.84856860999999995        0.0000000000000000     
  0.35141477999999998       0.15563974000000000        0.0000000000000000     
  0.15290967000000000       0.35206625000000003        0.0000000000000000     
  0.82942241000000005       0.34936866000000000        0.0000000000000000     
  0.84390527000000004       0.64441694999999999        0.0000000000000000     
  0.63699174999999997       0.14284276000000001        0.0000000000000000     
  0.15620682999999999       0.64648446999999998        0.0000000000000000     
  0.36426062999999997       0.85756310999999996        0.0000000000000000     
  0.63489340999999999       0.40519052000000000        0.0000000000000000     
  0.52518872999999999       0.65957078000000002        0.0000000000000000     
  0.32158959999999998       0.42298103999999997        0.0000000000000000     
  0.58861710000000000       0.31711036999999997        0.0000000000000000     
  0.42078418000000001       0.69497151999999995        0.0000000000000000     
  0.48608786999999998       0.89334152000000000        0.0000000000000000     
   9.7084320000000002E-002  0.50000000000000000        0.0000000000000000     
  0.90291568000000000       0.50000000000000000        0.0000000000000000     
  0.51392453000000005       0.10668648999999999        0.0000000000000000     
  0.59792566999999996       0.73122754000000001        0.0000000000000000     
  0.74510058999999995       0.41124730999999998        0.0000000000000000     
  0.73212551999999997       0.90191560000000004        0.0000000000000000     
   9.7784830000000003E-002  0.26957329000000002        0.0000000000000000     
  0.26711221000000002        9.8671499999999995E-002   0.0000000000000000     
  0.90191560000000004       0.26787448000000003        0.0000000000000000     
  0.90118569000000004       0.73039821000000005        0.0000000000000000     
  0.73122947000000005        9.8017859999999998E-002   0.0000000000000000     
   9.8084400000000002E-002  0.73212551999999997        0.0000000000000000     
  0.26957329000000002       0.90221516999999996        0.0000000000000000     
  0.39283522999999998       0.25360379000000000        0.0000000000000000     
  0.74480864000000002       0.60495284999999999        0.0000000000000000     
  0.25505132000000003       0.60593640999999998        0.0000000000000000     
  0.52159297999999998       0.40671636000000000        0.0000000000000000     
  0.40768852000000000       0.47699891000000000        0.0000000000000000     
   9.1467049999999994E-002   9.1876959999999994E-002   0.0000000000000000     
  0.90842484999999995       0.90819225000000003        0.0000000000000000     
  0.90820104999999995        9.1566729999999999E-002   0.0000000000000000     
   9.1807449999999999E-002  0.90843574000000005        0.0000000000000000     
  0.27098960000000000       0.20527094000000001        0.0000000000000000     
  0.73457293999999995       0.79835387000000002        0.0000000000000000     
  0.79817773000000003       0.25713470999999999        0.0000000000000000     
  0.20747797000000001       0.72863946000000002        0.0000000000000000     
  0.20175195000000001       0.27583914999999998        0.0000000000000000     
  0.79603889000000005       0.72159035000000005        0.0000000000000000     
  0.71761666000000002       0.19748431999999999        0.0000000000000000     
  0.28462607000000001       0.80251899999999998        0.0000000000000000     
  0.69134598999999997       0.49261972999999998        0.0000000000000000     
  0.44720578999999999       0.58582935999999997        0.0000000000000000     
  0.24242269999999999       0.37228174000000003        0.0000000000000000     
  0.38265623999999998       0.93072131999999996        0.0000000000000000     
  0.60971754000000000       0.91988369000000003        0.0000000000000000     
   7.9163609999999995E-002  0.60979116000000000        0.0000000000000000     
  0.92010649000000000       0.61081183999999999        0.0000000000000000     
  0.61954008999999999        7.1530830000000004E-002   0.0000000000000000     
  0.91882012999999996       0.38917363999999999        0.0000000000000000     
  0.39086346000000000        8.0652249999999995E-002   0.0000000000000000     
   7.9183480000000001E-002  0.38966213000000000        0.0000000000000000     
  0.59114111999999996       0.49294315000000000        0.0000000000000000     
  0.63337980999999999       0.64485914000000000        0.0000000000000000     
  0.50012352000000004       0.29676539000000002        0.0000000000000000     
  0.82552601000000003       0.92753492000000004        0.0000000000000000     
  0.92774772999999999       0.82498556999999995        0.0000000000000000     
   7.1970870000000006E-002  0.17510291000000000        0.0000000000000000     
  0.17422821999999999        7.2635640000000001E-002   0.0000000000000000     
  0.82510813000000005        7.2134840000000006E-002   0.0000000000000000     
  0.92754665000000003       0.17446275999999999        0.0000000000000000     
  0.17501022999999999       0.92789951999999998        0.0000000000000000     
   7.2464680000000004E-002  0.82554053000000005        0.0000000000000000     
  0.30731587999999999       0.50885354999999999        0.0000000000000000     
  0.59033407999999998       0.22171178999999999        0.0000000000000000     
  0.40109191999999999       0.78725542000000004        0.0000000000000000     
  0.35420917000000002       0.63754104000000000        0.0000000000000000     
  0.15983976999999999       0.56665573000000002        0.0000000000000000     
  0.84108459999999996       0.56757886999999996        0.0000000000000000     
  0.83902096000000004       0.43344338999999998        0.0000000000000000     
  0.43230028999999998       0.16004268999999999        0.0000000000000000     
  0.57536027999999995       0.83041363999999995        0.0000000000000000     
  0.15771898000000001       0.42747892999999998        0.0000000000000000     
  0.34021692999999997       0.34221559000000001        0.0000000000000000     
  0.56002271999999997       0.57501117999999996        0.0000000000000000     
  0.65344329000000001       0.78147597999999996        0.0000000000000000     
   0.0000000000000000        0.0000000000000000        0.0000000000000000     
   1.0000000000000000        0.0000000000000000        0.0000000000000000     
   1.0000000000000000        1.0000000000000000        0.0000000000000000     
   0.0000000000000000        1.0000000000000000        0.0000000000000000     
  0.11111111000000000        0.0000000000000000        0.0000000000000000     
  0.22222222000000000        0.0000000000000000        0.0000000000000000     
  0.33333332999999998        0.0000000000000000        0.0000000000000000     
  0.44444444000000000        0.0000000000000000        0.0000000000000000     
  0.55555555999999995        0.0000000000000000        0.0000000000000000     
  0.66666667000000002        0.0000000000000000        0.0000000000000000     
  0.77777777999999997        0.0000000000000000        0.0000000000000000     
  0.88888889000000004        0.0000000000000000        0.0000000000000000     
   1.0000000000000000       0.11111111000000000        0.0000000000000000     
   1.0000000000000000       0.22222222000000000        0.0000000000000000     
   1.0000000000000000       0.33333332999999998        0.0000000000000000     
   1.0000000000000000       0.44444444000000000        0.0000000000000000     
   1.0000000000000000       0.55555555999999995        0.0000000000000000     
   1.0000000000000000       0.66666667000000002        0.0000000000000000     
   1.0000000000000000       0.77777777999999997        0.0000000000000000     
   1.0000000000000000       0.88888889000000004        0.0000000000000000     
  0.88888889000000004        1.0000000000000000        0.0000000000000000     
  0.77777777999999997        1.0000000000000000        0.0000000000000000     
  0.66666667000000002        1.0000000000000000        0.0000000000000000     
  0.55555555999999995        1.0000000000000000        0.0000000000000000     
  0.44444444000000000        1.0000000000000000        0.0000000000000000     
  0.33333332999999998        1.0000000000000000        0.0000000000000000     
  0.22222222000000000        1.0000000000000000        0.0000000000000000     
  0.11111111000000000        1.0000000000000000        0.0000000000000000     
   0.0000000000000000       0.11111111000000000        0.0000000000000000     
   0.0000000000000000       0.22222222000000000        0.0000000000000000     
[...]
 CELL_DATA         354
 SCALARS E float
 LOOKUP_TABLE default
    0.73599408585949632755E+00
    0.74191178597209750389E+00
    0.67262376973928228452E+00
    0.61611266164122746591E+00
    0.74643875952144733699E+00
    0.74765185877534068304E+00
    0.73789391893099209874E+00
    0.74632154398116823391E+00
    0.72847011268815964335E+00
    0.71482145754320725040E+00
    0.68124524774114170178E+00
    0.70018022732167517486E+00
    0.67522120821644127098E+00
    0.67930098753824430524E+00
    0.68896264391705430707E+00
    0.68285856833187674741E+00
    0.70060415359495631371E+00
    0.71803354336491154175E+00
    0.73871771454454515649E+00
    0.72955394515314253567E+00
    0.74052898841726899626E+00
    0.73752862082061110272E+00
    0.72733884595022901820E+00
    0.73358979620039743708E+00
    0.72518005933585727441E+00
    0.72904118293855868504E+00
    0.73702203446139535892E+00
    0.73289963192236018408E+00
    0.74061003875873876456E+00
    0.74626105951242416303E+00
    0.74497799653020957411E+00
    0.74673206641772771341E+00
    0.73732168058245151077E+00
    0.72705150093252812749E+00
    0.69688779665451250356E+00
    0.71173896594858199194E+00
    0.68521571187215479792E+00
    0.69191703475990640193E+00
    0.70952490826386127587E+00
    0.70074312110123537778E+00
    0.71423079168064174116E+00
    0.71540374625380598328E+00
    0.71817220374119750126E+00
    0.71673309960726205858E+00
    0.71536864992115445361E+00
    0.70717321818439327075E+00
    0.69435976296538737262E+00
    0.69975548000363174683E+00
    0.68276378366166334821E+00
    0.66644746058210513340E+00
    0.63667589418104730825E+00
    0.64997450473081330724E+00
    0.74068038423482263077E+00
    0.74227781097280309819E+00
    0.74467829509736882532E+00
    0.74396254880044498936E+00
    0.74435328317262594577E+00
    0.74425827854111725745E+00
    0.74231211766662563711E+00
    0.74346486382056320430E+00
    0.73822512079350099956E+00
    0.73285301744721720318E+00
    0.71422632678055386624E+00
    0.72421317851700173218E+00
    0.69911816880061627977E+00
    0.68067852358535085866E+00
    0.64227154413095344232E+00
    0.66010077836969116571E+00
    0.62983131001739212085E+00
    0.66404038134938114801E+00
    0.68538548153758682702E+00
    0.64774157659310560575E+00
    0.67601089602422992364E+00
    0.67266098738773527632E+00
    0.70210359140311706660E+00
    0.71636489032474592875E+00
    0.70996674452655783583E+00
    0.68551388086907305563E+00
    0.74215427480684204031E+00
    0.73285264205665090476E+00
    0.74797387442811480440E+00
    0.74523387076831859588E+00
    0.73351248191953510869E+00
    0.74580517592404182992E+00
    0.63997456367569804936E+00
    0.59220834531221477892E+00
    0.57078938113815214095E+00
    0.62120205462620647907E+00
    0.63236159674476155601E+00
    0.60711008052185400086E+00
    0.57958577286173496024E+00
    0.74826003391496032080E+00
    0.74873130953791899866E+00
    0.74804541801674384605E+00
    0.74687977004155881033E+00
    0.74953387881479260901E+00
    0.74674439555862148765E+00
    0.71599897141999602201E+00
    0.67272022061327385600E+00
    0.70713894323838066835E+00
    0.68106375115617845406E+00
    0.71461009720653367872E+00
    0.69760964966465788262E+00
    0.62163155891362587013E+00
    0.61899072442214519985E+00
    0.58162134587385860840E+00
    0.58119773183732825750E+00
    0.62538007548573282257E+00
    0.74060739335115566284E+00
    0.74550840004888541124E+00
    0.74732080296327119129E+00
    0.74609322239022346501E+00
    0.74973862975231697625E+00
    0.74878978750909219730E+00
    0.72086844445884734611E+00
    0.74686466487113867263E+00
    0.74251663015647484389E+00
    0.72904557994283014644E+00
    0.73073246990948237389E+00
    0.74482663876859223073E+00
    0.74151720356611328100E+00
    0.73645382184334540199E+00
    0.74439807490975407056E+00
    0.72403724331923258184E+00
    0.74636866190702721990E+00
    0.74746507052355148915E+00
    0.72571383756000107379E+00
    0.73397922012228100641E+00
    0.74606969989525373510E+00
    0.73623195376695826919E+00
    0.74761276277368515775E+00
    0.73081966841212753216E+00
    0.73866811133013499102E+00
    0.74683239367124887309E+00
    0.74470024468718554189E+00
    0.70178107768295006075E+00
    0.68303625705749260177E+00
    0.71628775496841057269E+00
    0.67818575422147597820E+00
    0.66424866446044505963E+00
    0.70372709381396936212E+00
    0.71175050822328667088E+00
    0.71917555795718801637E+00
    0.71324650771849207320E+00
    0.68688960745864491297E+00
    0.73185030740720713460E+00
    0.72977909189386325206E+00
    0.69457514880688553394E+00
    0.69924760504184912957E+00
    0.66349523179002245499E+00
    0.63083979684152158285E+00
    0.61221012220395398806E+00
    0.65051765862522992201E+00
    0.59933099956684865450E+00
    0.65181847795004388413E+00
    0.70535281402130778350E+00
    0.67622320733413665561E+00
    0.66583502157678520206E+00
    0.70701758706687711786E+00
    0.68913713438655643806E+00
    0.73633853232318247084E+00
    0.69955409619925579268E+00
    0.71325926973945863452E+00
    0.72069119807463244420E+00
    0.73096000333934263438E+00
    0.74192300445761327765E+00
    0.74820644795463064902E+00
    0.74209903995610382310E+00
    0.74700863520165683429E+00
    0.74874833294502662895E+00
    0.71122943279434380770E+00
    0.66775482408968311887E+00
    0.69883313423890103255E+00
    0.69481964224115511097E+00
    0.66834593161931366012E+00
    0.74803726983626250835E+00
    0.73792742668792676852E+00
    0.73313738446504206347E+00
    0.74927371459037961365E+00
    0.74398295215432252991E+00
    0.65867273147538196731E+00
    0.69675073060048198226E+00
    0.66761661455261955833E+00
    0.70359460567253473418E+00
    0.68741922399029253832E+00
    0.74948318456743678873E+00
    0.73444476731686825222E+00
    0.74607472345882996922E+00
    0.74747747417068399756E+00
    0.73722940581662710358E+00
    0.63143398948084361599E+00
    0.65289906419891963196E+00
    0.62434071649173294993E+00
    0.64656824406558988105E+00
    0.60244126472817371987E+00
    0.73911197430516384355E+00
    0.74747695293920113357E+00
    0.74514559929592971699E+00
    0.74487475361573518562E+00
    0.74839458424628058086E+00
    0.73695165189276812256E+00
    0.72793761343922591678E+00
    0.73886673729439333869E+00
    0.72836233399105931863E+00
    0.74337281807762700669E+00
    0.56800782439502228716E+00
    0.61766512040965804164E+00
    0.59105214908761449788E+00
    0.62944319904722201287E+00
    0.61755586155311692487E+00
    0.73545217677151342173E+00
    0.73602974150278321908E+00
    0.71791464571108276616E+00
    0.72405821470015141461E+00
    0.71029253089931820853E+00
    0.68244144383624905092E+00
    0.71048646002338355920E+00
    0.70854315725560301775E+00
    0.68397710991427074223E+00
    0.56704207659175565048E+00
    0.55806920753966438031E+00
    0.56054143779532683567E+00
    0.72781697533390232735E+00
    0.74764937072771775473E+00
    0.74024809487886344961E+00
    0.72609172379569075773E+00
    0.73499784618900210198E+00
    0.74587243585497131626E+00
    0.74510184393409584214E+00
    0.74541783685914742019E+00
    0.74995580268560613213E+00
    0.74928285455745702315E+00
    0.74975261236630841299E+00
    0.74157647236498647203E+00
    0.72802712050451390269E+00
    0.73063089874913011990E+00
    0.71731879729648595490E+00
    0.65451937843493479541E+00
    0.67603758995893792338E+00
    0.61124910315746283640E+00
    0.65034590857740870451E+00
    0.73410612753787662932E+00
    0.74793741983649186800E+00
    0.74646478413427641563E+00
    0.65162179777831896743E+00
    0.67313821629518200140E+00
    0.74312890945293652578E+00
    0.73271273572659689766E+00
    0.72171188574228994916E+00
    0.74293812065743292106E+00
    0.75012249702388200667E+00
    0.74823317217001439339E+00
    0.72200952671492435453E+00
    0.71588880436843183031E+00
    0.73962076872826931773E+00
    0.68896865268864793119E+00
    0.71687956785148021499E+00
    0.71891157210626754903E+00
    0.74969201379944894192E+00
    0.75011430923362565348E+00
    0.73803380339552937528E+00
    0.65586142291072779820E+00
    0.67252987396390129238E+00
    0.69736907010094750792E+00
    0.73541247198577641697E+00
    0.73347198915700895228E+00
    0.70378183595311061271E+00
    0.72837213510811016359E+00
    0.71601401871376235686E+00
    0.69360029466363393169E+00
    0.67981663291998650767E+00
    0.60816890229027975590E+00
    0.64378868664450916715E+00
    0.65587216964493721960E+00
    0.73735568436116827318E+00
    0.69424924768847584566E+00
    0.72147971772140029323E+00
    0.72403763109000496279E+00
    0.74689957569337184218E+00
    0.73643670172336017643E+00
    0.74345311963499205454E+00
    0.74694071462784950022E+00
    0.63664396627937813733E+00
    0.61644306899970602309E+00
    0.58035796304568754156E+00
    0.69154088692647319725E+00
    0.69854199921299775511E+00
    0.74848191019675947011E+00
    0.74899708587278124305E+00
    0.71003287897063915857E+00
    0.71867965133004974021E+00
    0.72557846775208245660E+00
    0.73093127738142293914E+00
    0.66936253369041831540E+00
    0.67399016591028448886E+00
    0.72367514800859811253E+00
    0.74947073980257994386E+00
    0.75000965279236897487E+00
    0.64486902769483445130E+00
    0.74281467618995655755E+00
    0.72567999771502367246E+00
    0.59218443175926671618E+00
    0.74525678094317882039E+00
    0.64893235051210684805E+00
    0.72535948261345550847E+00
    0.69932215738755210133E+00
    0.73327968678798027824E+00
    0.69885973026644554462E+00
    0.74285195193991215845E+00
    0.74727665523760766764E+00
    0.74061173372353272804E+00
    0.71162318127797796752E+00
    0.67457957718816619064E+00
    0.74946513151578197931E+00
    0.66792814122928034770E+00
    0.70827910828679707667E+00
    0.56308617045487208141E+00
    0.74932960038911144984E+00
    0.73508934383564794590E+00
    0.72845991441311075398E+00
    0.74480237744737531891E+00
    0.74546945731584934869E+00
    0.66710743722158727387E+00
    0.65557628210034069038E+00
    0.59904716210956077127E+00
    0.60440906163473551160E+00
    0.74644486419842126512E+00
    0.73743067138656859250E+00
    0.71827411775909189018E+00
    0.69876567994278637741E+00
    0.69592158790298386251E+00
    0.70834750657120304496E+00
    0.73088027484968642877E+00
    0.74116156469125815676E+00
    0.73645407053926059682E+00
    0.73860264405573472501E+00
    0.74367837498886590897E+00
    0.74564393977370380107E+00
    0.73595355503745241155E+00
    0.71029710829626546698E+00
    0.67992996647350512074E+00
    0.69562654054259320802E+00
    0.70146909009786062583E+00
    0.70040840649134561424E+00
    0.68911171839417073581E+00
    0.67033413693417176482E+00
    0.63939662481502657077E+00
    0.73693073944571230172E+00
    0.73983857062526670045E+00
    0.73846536554249375683E+00
    0.73258852775042115901E+00
    0.71835677392328090018E+00
    0.69325329492123177744E+00
    0.65477449953934252491E+00
