# vtk DataFile Version 3.0
LAPLACIEN  2D
ASCII
DATASET UNSTRUCTURED_GRID
 POINTS         391  float
  0.50371505999999999       0.50367786999999997        0.0000000000000000     
  0.29013556000000001       0.29014535000000002        0.0000000000000000     
  0.70165584999999997       0.71206597999999999        0.0000000000000000     
  0.70304188999999995       0.30176619999999998        0.0000000000000000     
  0.30920671999999999       0.71149227999999998        0.0000000000000000     
  0.79044983999999996       0.49884783999999999        0.0000000000000000     
  0.49102621000000002       0.20968644000000000        0.0000000000000000     
  0.49912957000000002       0.77208717000000004        0.0000000000000000     
  0.21724072999999999       0.48989389000000000        0.0000000000000000     
  0.83255933999999998       0.83046598000000005        0.0000000000000000     
  0.16646774000000000       0.17015694000000001        0.0000000000000000     
  0.83054514999999995       0.16736480000000001        0.0000000000000000     
  0.16953130999999999       0.83265739000000005        0.0000000000000000     
  0.42166445000000002       0.36345201999999999        0.0000000000000000     
  0.64462200999999997       0.56347807999999999        0.0000000000000000     
  0.35324633999999999       0.56311191000000005        0.0000000000000000     
  0.65456411000000003       0.84856860999999995        0.0000000000000000     
  0.35141477999999998       0.15563974000000000        0.0000000000000000     
  0.15290967000000000       0.35206625000000003        0.0000000000000000     
  0.82942241000000005       0.34936866000000000        0.0000000000000000     
  0.84390527000000004       0.64441694999999999        0.0000000000000000     
  0.63699174999999997       0.14284276000000001        0.0000000000000000     
  0.15620682999999999       0.64648446999999998        0.0000000000000000     
  0.36426062999999997       0.85756310999999996        0.0000000000000000     
  0.63489340999999999       0.40519052000000000        0.0000000000000000     
  0.52518872999999999       0.65957078000000002        0.0000000000000000     
  0.32158959999999998       0.42298103999999997        0.0000000000000000     
  0.58861710000000000       0.31711036999999997        0.0000000000000000     
  0.42078418000000001       0.69497151999999995        0.0000000000000000     
  0.48608786999999998       0.89334152000000000        0.0000000000000000     
   9.7084320000000002E-002  0.50000000000000000        0.0000000000000000     
  0.90291568000000000       0.50000000000000000        0.0000000000000000     
  0.51392453000000005       0.10668648999999999        0.0000000000000000     
  0.59792566999999996       0.73122754000000001        0.0000000000000000     
  0.74510058999999995       0.41124730999999998        0.0000000000000000     
  0.73212551999999997       0.90191560000000004        0.0000000000000000     
   9.7784830000000003E-002  0.26957329000000002        0.0000000000000000     
  0.26711221000000002        9.8671499999999995E-002   0.0000000000000000     
  0.90191560000000004       0.26787448000000003        0.0000000000000000     
  0.90118569000000004       0.73039821000000005        0.0000000000000000     
  0.73122947000000005        9.8017859999999998E-002   0.0000000000000000     
   9.8084400000000002E-002  0.73212551999999997        0.0000000000000000     
  0.26957329000000002       0.90221516999999996        0.0000000000000000     
  0.39283522999999998       0.25360379000000000        0.0000000000000000     
  0.74480864000000002       0.60495284999999999        0.0000000000000000     
  0.25505132000000003       0.60593640999999998        0.0000000000000000     
  0.52159297999999998       0.40671636000000000        0.0000000000000000     
  0.40768852000000000       0.47699891000000000        0.0000000000000000     
   9.1467049999999994E-002   9.1876959999999994E-002   0.0000000000000000     
  0.90842484999999995       0.90819225000000003        0.0000000000000000     
  0.90820104999999995        9.1566729999999999E-002   0.0000000000000000     
   9.1807449999999999E-002  0.90843574000000005        0.0000000000000000     
  0.27098960000000000       0.20527094000000001        0.0000000000000000     
  0.73457293999999995       0.79835387000000002        0.0000000000000000     
  0.79817773000000003       0.25713470999999999        0.0000000000000000     
  0.20747797000000001       0.72863946000000002        0.0000000000000000     
  0.20175195000000001       0.27583914999999998        0.0000000000000000     
  0.79603889000000005       0.72159035000000005        0.0000000000000000     
  0.71761666000000002       0.19748431999999999        0.0000000000000000     
  0.28462607000000001       0.80251899999999998        0.0000000000000000     
  0.69134598999999997       0.49261972999999998        0.0000000000000000     
  0.44720578999999999       0.58582935999999997        0.0000000000000000     
  0.24242269999999999       0.37228174000000003        0.0000000000000000     
  0.38265623999999998       0.93072131999999996        0.0000000000000000     
  0.60971754000000000       0.91988369000000003        0.0000000000000000     
   7.9163609999999995E-002  0.60979116000000000        0.0000000000000000     
  0.92010649000000000       0.61081183999999999        0.0000000000000000     
  0.61954008999999999        7.1530830000000004E-002   0.0000000000000000     
  0.91882012999999996       0.38917363999999999        0.0000000000000000     
  0.39086346000000000        8.0652249999999995E-002   0.0000000000000000     
   7.9183480000000001E-002  0.38966213000000000        0.0000000000000000     
  0.59114111999999996       0.49294315000000000        0.0000000000000000     
  0.63337980999999999       0.64485914000000000        0.0000000000000000     
  0.50012352000000004       0.29676539000000002        0.0000000000000000     
  0.82552601000000003       0.92753492000000004        0.0000000000000000     
  0.92774772999999999       0.82498556999999995        0.0000000000000000     
   7.1970870000000006E-002  0.17510291000000000        0.0000000000000000     
  0.17422821999999999        7.2635640000000001E-002   0.0000000000000000     
  0.82510813000000005        7.2134840000000006E-002   0.0000000000000000     
  0.92754665000000003       0.17446275999999999        0.0000000000000000     
  0.17501022999999999       0.92789951999999998        0.0000000000000000     
   7.2464680000000004E-002  0.82554053000000005        0.0000000000000000     
  0.30731587999999999       0.50885354999999999        0.0000000000000000     
  0.59033407999999998       0.22171178999999999        0.0000000000000000     
  0.40109191999999999       0.78725542000000004        0.0000000000000000     
  0.35420917000000002       0.63754104000000000        0.0000000000000000     
  0.15983976999999999       0.56665573000000002        0.0000000000000000     
  0.84108459999999996       0.56757886999999996        0.0000000000000000     
  0.83902096000000004       0.43344338999999998        0.0000000000000000     
  0.43230028999999998       0.16004268999999999        0.0000000000000000     
  0.57536027999999995       0.83041363999999995        0.0000000000000000     
  0.15771898000000001       0.42747892999999998        0.0000000000000000     
  0.34021692999999997       0.34221559000000001        0.0000000000000000     
  0.56002271999999997       0.57501117999999996        0.0000000000000000     
  0.65344329000000001       0.78147597999999996        0.0000000000000000     
   0.0000000000000000        0.0000000000000000        0.0000000000000000     
   1.0000000000000000        0.0000000000000000        0.0000000000000000     
   1.0000000000000000        1.0000000000000000        0.0000000000000000     
   0.0000000000000000        1.0000000000000000        0.0000000000000000     
  0.11111111000000000        0.0000000000000000        0.0000000000000000     
  0.22222222000000000        0.0000000000000000        0.0000000000000000     
  0.33333332999999998        0.0000000000000000        0.0000000000000000     
  0.44444444000000000        0.0000000000000000        0.0000000000000000     
  0.55555555999999995        0.0000000000000000        0.0000000000000000     
  0.66666667000000002        0.0000000000000000        0.0000000000000000     
  0.77777777999999997        0.0000000000000000        0.0000000000000000     
  0.88888889000000004        0.0000000000000000        0.0000000000000000     
   1.0000000000000000       0.11111111000000000        0.0000000000000000     
   1.0000000000000000       0.22222222000000000        0.0000000000000000     
   1.0000000000000000       0.33333332999999998        0.0000000000000000     
   1.0000000000000000       0.44444444000000000        0.0000000000000000     
   1.0000000000000000       0.55555555999999995        0.0000000000000000     
   1.0000000000000000       0.66666667000000002        0.0000000000000000     
   1.0000000000000000       0.77777777999999997        0.0000000000000000     
   1.0000000000000000       0.88888889000000004        0.0000000000000000     
  0.88888889000000004        1.0000000000000000        0.0000000000000000     
  0.77777777999999997        1.0000000000000000        0.0000000000000000     
  0.66666667000000002        1.0000000000000000        0.0000000000000000     
  0.55555555999999995        1.0000000000000000        0.0000000000000000     
  0.44444444000000000        1.0000000000000000        0.0000000000000000     
  0.33333332999999998        1.0000000000000000        0.0000000000000000     
  0.22222222000000000        1.0000000000000000        0.0000000000000000     
  0.11111111000000000        1.0000000000000000        0.0000000000000000     
   0.0000000000000000       0.11111111000000000        0.0000000000000000     
   0.0000000000000000       0.22222222000000000        0.0000000000000000     
[...]
 CELL_DATA         354
 SCALARS E float
 LOOKUP_TABLE default
    0.73024863889194890909E+00
    0.73425122709703005697E+00
    0.66854263223197718524E+00
    0.61338927148445188120E+00
    0.73969722504325807755E+00
    0.74104443764913319193E+00
    0.73062521915826805774E+00
    0.74006713972186422001E+00
    0.72172472507496243654E+00
    0.70934949980180628248E+00
    0.67557912308821621572E+00
    0.69479068587432946114E+00
    0.66866381511469374921E+00
    0.67316076077404718436E+00
    0.68340003130350968075E+00
    0.67735488457182035926E+00
    0.69414136184762076365E+00
    0.71142440303205634056E+00
    0.73314651664968255584E+00
    0.72564259731220370764E+00
    0.73377184402583572886E+00
    0.72977925197368354038E+00
    0.72326606468675136430E+00
    0.72804957814635118396E+00
    0.72067693580499014860E+00
    0.72214762217374861564E+00
    0.73221381366947368985E+00
    0.72731615039610120199E+00
    0.73234002878021675631E+00
    0.73982445571013233376E+00
    0.73828919014752203420E+00
    0.74003409747626369697E+00
    0.73160007788653602656E+00
    0.72139100186578275498E+00
    0.69125471736829835478E+00
    0.70598173939908059893E+00
    0.68059530107925581000E+00
    0.68698541943417312794E+00
    0.70464803554960142584E+00
    0.69596059535831844567E+00
    0.70918521284445024122E+00
    0.71022955427657252780E+00
    0.71314052553839502036E+00
    0.71160221024571401749E+00
    0.71050384996825166617E+00
    0.70245688609810663650E+00
    0.68979162425666729064E+00
    0.69500124555193265596E+00
    0.67854276134964475187E+00
    0.66246910776371248364E+00
    0.63293071244057497182E+00
    0.64585851905719082744E+00
    0.73473959080052930748E+00
    0.73626633021915910415E+00
    0.73900158659098502678E+00
    0.73814651004352727082E+00
    0.73838075955780035908E+00
    0.73820346091446542580E+00
    0.73623429591407851813E+00
    0.73737656012708652220E+00
    0.73238230326994901986E+00
    0.72710364371093272329E+00
    0.70891876892877447869E+00
    0.71850249278918465468E+00
    0.69445356982271322366E+00
    0.67627446250929645899E+00
    0.63800450234834304997E+00
    0.65567175002090849478E+00
    0.62485619972051897886E+00
    0.65617871488422863102E+00
    0.67461453063673104680E+00
    0.64126622711491043649E+00
    0.66557656365210771110E+00
    0.66432053460904627595E+00
    0.69365790570862462250E+00
    0.70822143770464951462E+00
    0.70059886093358025860E+00
    0.67604744561112450896E+00
    0.73318995479045501185E+00
    0.72654658540525929311E+00
    0.74095033179465585871E+00
    0.73669851144510467567E+00
    0.72709714131940106352E+00
    0.73824467055381259861E+00
    0.63237018692303648137E+00
    0.58294549406048812301E+00
    0.54452917693331026605E+00
    0.61686676879082391611E+00
    0.62468922783217939454E+00
    0.60560311601118943514E+00
    0.56623734373257605945E+00
    0.73944149081195453821E+00
    0.73998734772556773454E+00
    0.74057352265164899663E+00
    0.73950705927257032180E+00
    0.74152102787564855291E+00
    0.73742147590647855182E+00
    0.70797413945684328773E+00
    0.66373209256051313165E+00
    0.69891081795087484085E+00
    0.67151850667311274723E+00
    0.70768061649558910986E+00
    0.68886731714476590049E+00
    0.61378010931407178674E+00
    0.61101089757064985797E+00
    0.57543099259874752605E+00
    0.57553001573448847594E+00
    0.62044356675139322732E+00
    0.73048941380843390725E+00
    0.73676660661050097367E+00
    0.73989685061126830856E+00
    0.73756780540770316978E+00
    0.74224580224515646076E+00
    0.74110062815089583488E+00
    0.71386275625411721446E+00
    0.73931461549653354481E+00
    0.73354179502449723405E+00
    0.72223778850585340638E+00
    0.72375735142253239118E+00
    0.73532378653772001442E+00
    0.73535352392600406013E+00
    0.72948051844263173127E+00
    0.73718686131215693802E+00
    0.71780428780860550120E+00
    0.73874250415739395326E+00
    0.73990679239781542709E+00
    0.71962619957831808204E+00
    0.72751244150621330320E+00
    0.73698062330539815257E+00
    0.72841370507900871090E+00
    0.74083300875602597912E+00
    0.72772204015104891006E+00
    0.73118023071510662714E+00
    0.73977860085939850521E+00
    0.73497883223612547887E+00
    0.69321628941849167127E+00
    0.67478331922722656344E+00
    0.70874108027987103853E+00
    0.66824606649088791333E+00
    0.65433751091984715398E+00
    0.69739495626005942874E+00
    0.70531038806137513753E+00
    0.71287012813582217863E+00
    0.70717586439579394053E+00
    0.68165693296082219277E+00
    0.72466641623181471399E+00
    0.72273282081923451159E+00
    0.68941361006636969755E+00
    0.69391626749922852291E+00
    0.65489399468644160507E+00
    0.62537254373384254524E+00
    0.60629867847330065622E+00
    0.64172939661513939136E+00
    0.59590089230016796140E+00
    0.64498261816630497734E+00
    0.69562951466532019218E+00
    0.66720305945745050913E+00
    0.65766368448950895953E+00
    0.69829879002866257487E+00
    0.67918869140011239871E+00
    0.72969255041077252244E+00
    0.69153185619629820025E+00
    0.70585112398062099803E+00
    0.71482213001685268594E+00
    0.72255487196065681932E+00
    0.73413054441178471343E+00
    0.74069200472225960041E+00
    0.73438870503573561166E+00
    0.73956509279238802357E+00
    0.74121658436546922211E+00
    0.70245295964474407935E+00
    0.65879559215578231690E+00
    0.68975280219383072744E+00
    0.68532689017268400011E+00
    0.65966244988516409276E+00
    0.73964193401109734616E+00
    0.73208548041047172283E+00
    0.72582681264040460611E+00
    0.74165568351108568379E+00
    0.73439941905731709326E+00
    0.65169681394800849095E+00
    0.68718902587020547212E+00
    0.65898483439458921396E+00
    0.69401265422109059688E+00
    0.67898158515148598902E+00
    0.74226065614588598862E+00
    0.72886209420289449490E+00
    0.73703903501912315654E+00
    0.73931740154549197008E+00
    0.73209871739985887817E+00
    0.62659102401667332582E+00
    0.64251967983976443488E+00
    0.61959456109179678052E+00
    0.64082566234263316218E+00
    0.59743919716026638866E+00
    0.73166402310603717574E+00
    0.74056438041059269306E+00
    0.73790869316482754492E+00
    0.73725506232695880993E+00
    0.74140464435628505857E+00
    0.73010707199875712892E+00
    0.72093487459816973928E+00
    0.73219531347895794315E+00
    0.72191319564651001972E+00
    0.73606107514205010300E+00
    0.55122676761552358293E+00
    0.61469316530501227902E+00
    0.58303759019117262774E+00
    0.62264274642609274135E+00
    0.61284410124466526248E+00
    0.72798812244088617618E+00
    0.72980775243966511390E+00
    0.71167943896750873733E+00
    0.71805015303449692965E+00
    0.70224844874515057747E+00
    0.67495412354102635177E+00
    0.70161490276631510721E+00
    0.70093330750354410075E+00
    0.67429383411489662858E+00
    0.54811810453713527558E+00
    0.53384717195904629605E+00
    0.53055955500444684780E+00
    0.72314967440572197610E+00
    0.73976878663582312790E+00
    0.73362963053486129894E+00
    0.72031818382707502035E+00
    0.72773004684203101977E+00
    0.73813036980858881542E+00
    0.73729283166064807364E+00
    0.73822659157373182737E+00
    0.74205085705867057655E+00
    0.74136382569849079704E+00
    0.74207841573890664932E+00
    0.73382038968787632882E+00
    0.72300972582359990248E+00
    0.72286115326997424368E+00
    0.70887685281388712610E+00
    0.65089325530378805418E+00
    0.66695810459286808403E+00
    0.60172327902233746499E+00
    0.64204715863640804407E+00
    0.72761378477221161365E+00
    0.74086554525952863504E+00
    0.73899915285891182304E+00
    0.64438240062676732656E+00
    0.66536191895566698662E+00
    0.73551111013322723053E+00
    0.72532355095894729402E+00
    0.71565786791316987614E+00
    0.73259652929888896544E+00
    0.74235475380559212688E+00
    0.74122764576004618320E+00
    0.71643342868608705931E+00
    0.70801110960730206934E+00
    0.72962899236638467659E+00
    0.67814849602636928516E+00
    0.71006941657135658197E+00
    0.71423866579817385514E+00
    0.74184260889139885808E+00
    0.74250260581262617077E+00
    0.73171190059161206332E+00
    0.64602256132513868891E+00
    0.66302448608336139735E+00
    0.69074455523410960289E+00
    0.72814362192734016777E+00
    0.72611771227554111618E+00
    0.69841150295273013437E+00
    0.72147191046054737207E+00
    0.70930631686306577777E+00
    0.68840737692269782233E+00
    0.67057418589740880321E+00
    0.59973687246721363309E+00
    0.63756047691825923351E+00
    0.64984445306688887189E+00
    0.72680165949009933879E+00
    0.68336057868935340398E+00
    0.71605719414974511317E+00
    0.72020640053145557058E+00
    0.73961789614646278324E+00
    0.73135523406206892627E+00
    0.73365628850409059236E+00
    0.73807223379259845331E+00
    0.62818852773918409937E+00
    0.61373275854461228906E+00
    0.56994396557919912993E+00
    0.68275059719585273754E+00
    0.69026577092559304738E+00
    0.74147023019659785703E+00
    0.74206796502862348852E+00
    0.70391657908226767937E+00
    0.71233753022947232658E+00
    0.71987787291513738452E+00
    0.72314721965340900134E+00
    0.66409911828972600922E+00
    0.66867983002966258077E+00
    0.71727736825708521273E+00
    0.74202264709194687420E+00
    0.74272636017738491443E+00
    0.63678515690152859285E+00
    0.73553554713186131142E+00
    0.72012856147617088087E+00
    0.59491624942257481656E+00
    0.73829856816138850206E+00
    0.64167992300307030717E+00
    0.72000591983119854866E+00
    0.68982606671469437476E+00
    0.72417506245386409347E+00
    0.68877890378320483222E+00
    0.73523984482641924210E+00
    0.73994528090426214817E+00
    0.73191989534341828083E+00
    0.70247145365364571656E+00
    0.66401422674764609688E+00
    0.74162867878636840047E+00
    0.65822829944988037187E+00
    0.69906692231821776495E+00
    0.54999983084586734350E+00
    0.74210016406438505943E+00
    0.72898796016529365804E+00
    0.72320393465355137241E+00
    0.73841956824002374926E+00
    0.73994166656622573086E+00
    0.66260268577697034598E+00
    0.65225399550013685168E+00
    0.59681021055550276255E+00
    0.60152215879866577364E+00
    0.74024622163385833673E+00
    0.73095662813899420218E+00
    0.71356929087071374607E+00
    0.69426024405207176216E+00
    0.69205119107451174010E+00
    0.70389910155621260301E+00
    0.72612270750718244106E+00
    0.73508098398590748790E+00
    0.73203550421097807188E+00
    0.73177689720677052687E+00
    0.73705101299048880747E+00
    0.74017215996443852521E+00
    0.73041888259727361099E+00
    0.70494071926653734117E+00
    0.67600073145151007292E+00
    0.69163812481010600308E+00
    0.69739175710613354742E+00
    0.69637185730599548972E+00
    0.68525253255768969751E+00
    0.66691921941210985381E+00
    0.63631609323976434656E+00
    0.73155019485355088360E+00
    0.73463967758464787661E+00
    0.73335647088402411420E+00
    0.72747845232215524458E+00
    0.71356410876955855827E+00
    0.68907612485273062042E+00
    0.65105973388266069612E+00
