# vtk DataFile Version 3.0
LAPLACIEN  2D
ASCII
DATASET UNSTRUCTURED_GRID
 POINTS         391  float
  0.50371505999999999       0.50367786999999997        0.0000000000000000     
  0.29013556000000001       0.29014535000000002        0.0000000000000000     
  0.70165584999999997       0.71206597999999999        0.0000000000000000     
  0.70304188999999995       0.30176619999999998        0.0000000000000000     
  0.30920671999999999       0.71149227999999998        0.0000000000000000     
  0.79044983999999996       0.49884783999999999        0.0000000000000000     
  0.49102621000000002       0.20968644000000000        0.0000000000000000     
  0.49912957000000002       0.77208717000000004        0.0000000000000000     
  0.21724072999999999       0.48989389000000000        0.0000000000000000     
  0.83255933999999998       0.83046598000000005        0.0000000000000000     
  0.16646774000000000       0.17015694000000001        0.0000000000000000     
  0.83054514999999995       0.16736480000000001        0.0000000000000000     
  0.16953130999999999       0.83265739000000005        0.0000000000000000     
  0.42166445000000002       0.36345201999999999        0.0000000000000000     
  0.64462200999999997       0.56347807999999999        0.0000000000000000     
  0.35324633999999999       0.56311191000000005        0.0000000000000000     
  0.65456411000000003       0.84856860999999995        0.0000000000000000     
  0.35141477999999998       0.15563974000000000        0.0000000000000000     
  0.15290967000000000       0.35206625000000003        0.0000000000000000     
  0.82942241000000005       0.34936866000000000        0.0000000000000000     
  0.84390527000000004       0.64441694999999999        0.0000000000000000     
  0.63699174999999997       0.14284276000000001        0.0000000000000000     
  0.15620682999999999       0.64648446999999998        0.0000000000000000     
  0.36426062999999997       0.85756310999999996        0.0000000000000000     
  0.63489340999999999       0.40519052000000000        0.0000000000000000     
  0.52518872999999999       0.65957078000000002        0.0000000000000000     
  0.32158959999999998       0.42298103999999997        0.0000000000000000     
  0.58861710000000000       0.31711036999999997        0.0000000000000000     
  0.42078418000000001       0.69497151999999995        0.0000000000000000     
  0.48608786999999998       0.89334152000000000        0.0000000000000000     
   9.7084320000000002E-002  0.50000000000000000        0.0000000000000000     
  0.90291568000000000       0.50000000000000000        0.0000000000000000     
  0.51392453000000005       0.10668648999999999        0.0000000000000000     
  0.59792566999999996       0.73122754000000001        0.0000000000000000     
  0.74510058999999995       0.41124730999999998        0.0000000000000000     
  0.73212551999999997       0.90191560000000004        0.0000000000000000     
   9.7784830000000003E-002  0.26957329000000002        0.0000000000000000     
  0.26711221000000002        9.8671499999999995E-002   0.0000000000000000     
  0.90191560000000004       0.26787448000000003        0.0000000000000000     
  0.90118569000000004       0.73039821000000005        0.0000000000000000     
  0.73122947000000005        9.8017859999999998E-002   0.0000000000000000     
   9.8084400000000002E-002  0.73212551999999997        0.0000000000000000     
  0.26957329000000002       0.90221516999999996        0.0000000000000000     
  0.39283522999999998       0.25360379000000000        0.0000000000000000     
  0.74480864000000002       0.60495284999999999        0.0000000000000000     
  0.25505132000000003       0.60593640999999998        0.0000000000000000     
  0.52159297999999998       0.40671636000000000        0.0000000000000000     
  0.40768852000000000       0.47699891000000000        0.0000000000000000     
   9.1467049999999994E-002   9.1876959999999994E-002   0.0000000000000000     
  0.90842484999999995       0.90819225000000003        0.0000000000000000     
  0.90820104999999995        9.1566729999999999E-002   0.0000000000000000     
   9.1807449999999999E-002  0.90843574000000005        0.0000000000000000     
  0.27098960000000000       0.20527094000000001        0.0000000000000000     
  0.73457293999999995       0.79835387000000002        0.0000000000000000     
  0.79817773000000003       0.25713470999999999        0.0000000000000000     
  0.20747797000000001       0.72863946000000002        0.0000000000000000     
  0.20175195000000001       0.27583914999999998        0.0000000000000000     
  0.79603889000000005       0.72159035000000005        0.0000000000000000     
  0.71761666000000002       0.19748431999999999        0.0000000000000000     
  0.28462607000000001       0.80251899999999998        0.0000000000000000     
  0.69134598999999997       0.49261972999999998        0.0000000000000000     
  0.44720578999999999       0.58582935999999997        0.0000000000000000     
  0.24242269999999999       0.37228174000000003        0.0000000000000000     
  0.38265623999999998       0.93072131999999996        0.0000000000000000     
  0.60971754000000000       0.91988369000000003        0.0000000000000000     
   7.9163609999999995E-002  0.60979116000000000        0.0000000000000000     
  0.92010649000000000       0.61081183999999999        0.0000000000000000     
  0.61954008999999999        7.1530830000000004E-002   0.0000000000000000     
  0.91882012999999996       0.38917363999999999        0.0000000000000000     
  0.39086346000000000        8.0652249999999995E-002   0.0000000000000000     
   7.9183480000000001E-002  0.38966213000000000        0.0000000000000000     
  0.59114111999999996       0.49294315000000000        0.0000000000000000     
  0.63337980999999999       0.64485914000000000        0.0000000000000000     
  0.50012352000000004       0.29676539000000002        0.0000000000000000     
  0.82552601000000003       0.92753492000000004        0.0000000000000000     
  0.92774772999999999       0.82498556999999995        0.0000000000000000     
   7.1970870000000006E-002  0.17510291000000000        0.0000000000000000     
  0.17422821999999999        7.2635640000000001E-002   0.0000000000000000     
  0.82510813000000005        7.2134840000000006E-002   0.0000000000000000     
  0.92754665000000003       0.17446275999999999        0.0000000000000000     
  0.17501022999999999       0.92789951999999998        0.0000000000000000     
   7.2464680000000004E-002  0.82554053000000005        0.0000000000000000     
  0.30731587999999999       0.50885354999999999        0.0000000000000000     
  0.59033407999999998       0.22171178999999999        0.0000000000000000     
  0.40109191999999999       0.78725542000000004        0.0000000000000000     
  0.35420917000000002       0.63754104000000000        0.0000000000000000     
  0.15983976999999999       0.56665573000000002        0.0000000000000000     
  0.84108459999999996       0.56757886999999996        0.0000000000000000     
  0.83902096000000004       0.43344338999999998        0.0000000000000000     
  0.43230028999999998       0.16004268999999999        0.0000000000000000     
  0.57536027999999995       0.83041363999999995        0.0000000000000000     
  0.15771898000000001       0.42747892999999998        0.0000000000000000     
  0.34021692999999997       0.34221559000000001        0.0000000000000000     
  0.56002271999999997       0.57501117999999996        0.0000000000000000     
  0.65344329000000001       0.78147597999999996        0.0000000000000000     
   0.0000000000000000        0.0000000000000000        0.0000000000000000     
   1.0000000000000000        0.0000000000000000        0.0000000000000000     
   1.0000000000000000        1.0000000000000000        0.0000000000000000     
   0.0000000000000000        1.0000000000000000        0.0000000000000000     
  0.11111111000000000        0.0000000000000000        0.0000000000000000     
  0.22222222000000000        0.0000000000000000        0.0000000000000000     
  0.33333332999999998        0.0000000000000000        0.0000000000000000     
  0.44444444000000000        0.0000000000000000        0.0000000000000000     
  0.55555555999999995        0.0000000000000000        0.0000000000000000     
  0.66666667000000002        0.0000000000000000        0.0000000000000000     
  0.77777777999999997        0.0000000000000000        0.0000000000000000     
  0.88888889000000004        0.0000000000000000        0.0000000000000000     
   1.0000000000000000       0.11111111000000000        0.0000000000000000     
   1.0000000000000000       0.22222222000000000        0.0000000000000000     
   1.0000000000000000       0.33333332999999998        0.0000000000000000     
   1.0000000000000000       0.44444444000000000        0.0000000000000000     
   1.0000000000000000       0.55555555999999995        0.0000000000000000     
   1.0000000000000000       0.66666667000000002        0.0000000000000000     
   1.0000000000000000       0.77777777999999997        0.0000000000000000     
   1.0000000000000000       0.88888889000000004        0.0000000000000000     
  0.88888889000000004        1.0000000000000000        0.0000000000000000     
  0.77777777999999997        1.0000000000000000        0.0000000000000000     
  0.66666667000000002        1.0000000000000000        0.0000000000000000     
  0.55555555999999995        1.0000000000000000        0.0000000000000000     
  0.44444444000000000        1.0000000000000000        0.0000000000000000     
  0.33333332999999998        1.0000000000000000        0.0000000000000000     
  0.22222222000000000        1.0000000000000000        0.0000000000000000     
  0.11111111000000000        1.0000000000000000        0.0000000000000000     
   0.0000000000000000       0.11111111000000000        0.0000000000000000     
   0.0000000000000000       0.22222222000000000        0.0000000000000000     
[...]
 CELL_DATA         354
 SCALARS E float
 LOOKUP_TABLE default
    0.73413926983040134200E+00
    0.73933041945716704291E+00
    0.67111571129660574364E+00
    0.61470610019036064919E+00
    0.74614626237005954312E+00
    0.74674790221945497315E+00
    0.73516823694723498761E+00
    0.74470347581446061369E+00
    0.72563850690916242847E+00
    0.71219396298539972001E+00
    0.67691334014209614267E+00
    0.69627640959656833530E+00
    0.67181058290145378997E+00
    0.67536772209364737130E+00
    0.68488833516595404305E+00
    0.67869421304525201499E+00
    0.69702752453041050273E+00
    0.71561367017783827915E+00
    0.73783492617705004335E+00
    0.72792294386807709916E+00
    0.73874408031240246242E+00
    0.73560047881643864098E+00
    0.72446809987471283421E+00
    0.73109682775176099145E+00
    0.72131245283297329429E+00
    0.72551594850838874162E+00
    0.73448394297334873571E+00
    0.73024086354899453433E+00
    0.73793992170534550290E+00
    0.74405930514179119406E+00
    0.74322693925250360447E+00
    0.74505753966992827042E+00
    0.73546685367167308200E+00
    0.72581487662387234039E+00
    0.69654954661377366243E+00
    0.71104990720508465252E+00
    0.68405745294965902836E+00
    0.69084257739517673791E+00
    0.70782988802775137493E+00
    0.69931673484145284725E+00
    0.71208344939306644772E+00
    0.71346941666458385534E+00
    0.71595640618616251949E+00
    0.71482569244972071765E+00
    0.71343237308367857263E+00
    0.70546118339316521428E+00
    0.69254431989744613674E+00
    0.69796061366240147450E+00
    0.68112276155316653359E+00
    0.66515335265688380062E+00
    0.63582265568316576054E+00
    0.64907625695058157600E+00
    0.73908236545528283035E+00
    0.74084133886918790424E+00
    0.74261797494116921214E+00
    0.74211650558101971420E+00
    0.74170112959804024300E+00
    0.74187104364680644952E+00
    0.74035369374131188014E+00
    0.74153983548160584682E+00
    0.73615746890580435746E+00
    0.73108317666788646960E+00
    0.71244890399477900367E+00
    0.72261959272061693227E+00
    0.69747034546091557505E+00
    0.67949586364261560512E+00
    0.64171808250487272218E+00
    0.65934979986259545370E+00
    0.62920399701250395719E+00
    0.66437608487909471933E+00
    0.68760386053965771858E+00
    0.64739222757319048185E+00
    0.67783746786832144160E+00
    0.67123766476953306004E+00
    0.70159018988341403933E+00
    0.71729821381509017986E+00
    0.71140815216128427956E+00
    0.68615020912935742459E+00
    0.74112746790332217905E+00
    0.73161983048866019441E+00
    0.74795249183165424256E+00
    0.74463050172855482778E+00
    0.73346170740298410884E+00
    0.74421931388888884484E+00
    0.64068921449141669200E+00
    0.59781106848690557243E+00
    0.58929874693037442857E+00
    0.62184930140104910379E+00
    0.63345202544472734019E+00
    0.60673672028193326167E+00
    0.58933118202286660647E+00
    0.74948647292212144944E+00
    0.74928032016549239724E+00
    0.74818628739536319205E+00
    0.74680696969127102758E+00
    0.74964264648471723440E+00
    0.74819590669547253459E+00
    0.71668872119314985802E+00
    0.67240330825105110168E+00
    0.70692042069809690741E+00
    0.68219603950786533719E+00
    0.71290616953932939293E+00
    0.69841529003255009567E+00
    0.62437012530260282972E+00
    0.62216447545917785700E+00
    0.58415116506929476436E+00
    0.58307230461068959571E+00
    0.62534318657494014637E+00
    0.74075241870391517196E+00
    0.74502840451763940877E+00
    0.74851852531187090811E+00
    0.74573511172508788469E+00
    0.75022774509263834286E+00
    0.74853868567067749495E+00
    0.72237080119601970729E+00
    0.74714047788750015400E+00
    0.74253107233570270207E+00
    0.72850939079589893677E+00
    0.73186830705017824616E+00
    0.74324835174553749439E+00
    0.74053349674644364242E+00
    0.73621768039750290491E+00
    0.74397799509471984614E+00
    0.72370786472528969568E+00
    0.74713628918461794104E+00
    0.74798482399264099030E+00
    0.72449871475256533149E+00
    0.73308816616734417959E+00
    0.74531814360918335893E+00
    0.73565618933451748518E+00
    0.74706373447351226424E+00
    0.73193880242805664516E+00
    0.73936863556758547489E+00
    0.74538665376342927438E+00
    0.74328328783225972032E+00
    0.70174099642177556468E+00
    0.68261213948471211044E+00
    0.71574999286368301554E+00
    0.68013663159226589450E+00
    0.66604971862430983887E+00
    0.70164772989754187194E+00
    0.70945505455016499852E+00
    0.71871627700907581016E+00
    0.71269285503840806850E+00
    0.68655055641467854777E+00
    0.73242972846977738577E+00
    0.73019814405485816700E+00
    0.69359024844309158375E+00
    0.69826741786944312995E+00
    0.66316162888432050870E+00
    0.63118705142902631344E+00
    0.61496834534618483037E+00
    0.65145067180434046428E+00
    0.60253322625195981921E+00
    0.65080588358867019760E+00
    0.70768907221901700133E+00
    0.67667470219570358125E+00
    0.66496234785596808337E+00
    0.70861513475143267371E+00
    0.69003148039753836596E+00
    0.73829547214024371371E+00
    0.69752684343322557403E+00
    0.71222845343151386377E+00
    0.72100269296157937227E+00
    0.73129090180713196556E+00
    0.74324809939997860120E+00
    0.74881880322585880894E+00
    0.74369172033462427329E+00
    0.74674658682648886732E+00
    0.74870976451874837743E+00
    0.71378309807162687584E+00
    0.66796956650194305727E+00
    0.69942485106662466432E+00
    0.69732136003585398765E+00
    0.66846715613068419248E+00
    0.74939442957196122919E+00
    0.73758028869159408814E+00
    0.73203427384925112698E+00
    0.75078595088181654393E+00
    0.74381861656859360465E+00
    0.65782902017743405398E+00
    0.69835219642543555629E+00
    0.66801696275547461923E+00
    0.70527929157180935249E+00
    0.68685462847769518380E+00
    0.75099532147903746981E+00
    0.73367239867949529675E+00
    0.74594823358259154666E+00
    0.74880873646741519245E+00
    0.73673318066048287811E+00
    0.63147445485740349991E+00
    0.65563441511495557101E+00
    0.62460135989218690256E+00
    0.64594116397601630819E+00
    0.60584116029587342656E+00
    0.74035912514368973358E+00
    0.74664253135255420624E+00
    0.74478060817544078365E+00
    0.74605990980619207864E+00
    0.74806141510028079100E+00
    0.73569166714025024945E+00
    0.72875587809602415668E+00
    0.73830679753251149400E+00
    0.72793652447462608990E+00
    0.74260428982299697687E+00
    0.58003736925728821561E+00
    0.61753403345161350657E+00
    0.59550798247617842129E+00
    0.63067343164957290202E+00
    0.61854715916525548902E+00
    0.73564929297587011714E+00
    0.73548262699030386713E+00
    0.71755881773953877900E+00
    0.72422247675830397906E+00
    0.71051171414384572955E+00
    0.68147265335941387132E+00
    0.71223427245162429511E+00
    0.70851400005333953214E+00
    0.68480695511526634700E+00
    0.58051005025176238838E+00
    0.57908926691585715929E+00
    0.58545150324790262708E+00
    0.72738047530079141811E+00
    0.74751162602712739602E+00
    0.74031997777619551471E+00
    0.72475816466972531327E+00
    0.73539541069353187019E+00
    0.74674375725483477240E+00
    0.74599835298027805663E+00
    0.74575662454173596849E+00
    0.75065288904320448538E+00
    0.74927816849428441337E+00
    0.75129359617515456549E+00
    0.74192909066774603843E+00
    0.72898837689334738954E+00
    0.73061580731113340281E+00
    0.71978608712547986759E+00
    0.65155520955065249211E+00
    0.67726434468769891595E+00
    0.61765514561442436126E+00
    0.65250099619999024636E+00
    0.73403681076614779588E+00
    0.74783369091549389829E+00
    0.74540193199681958891E+00
    0.65188152227398776795E+00
    0.67138297556573200975E+00
    0.74382083870751891652E+00
    0.73366555686500389832E+00
    0.72078741861462003460E+00
    0.74349565505365133866E+00
    0.75075418512426383977E+00
    0.74714817357312068857E+00
    0.72308216627503085761E+00
    0.71806639190281029705E+00
    0.73791192629491009214E+00
    0.69131924522486531970E+00
    0.71706277942022200733E+00
    0.71702775684590291938E+00
    0.75041685288102533136E+00
    0.75137574192196232570E+00
    0.73678255857021590636E+00
    0.65802509413057963528E+00
    0.67458164113223595404E+00
    0.69507318011857033291E+00
    0.73600051307567082581E+00
    0.73440716046131537809E+00
    0.70273002513552818016E+00
    0.72870975440012619728E+00
    0.71655492533670783750E+00
    0.69263516486764031832E+00
    0.67897061106676137587E+00
    0.61379809383094441344E+00
    0.64366861918203555071E+00
    0.65418443931947889425E+00
    0.73638752669317730781E+00
    0.69639167624818842928E+00
    0.72189831062853626609E+00
    0.72265210365155652106E+00
    0.74623739699884272802E+00
    0.73888374385751731666E+00
    0.74457531822387168496E+00
    0.74563892465103198681E+00
    0.63827475992254845139E+00
    0.61600540941918713322E+00
    0.58853595093862831611E+00
    0.69147621822389626622E+00
    0.69705757850211824689E+00
    0.74830210931789875595E+00
    0.74891127010347746662E+00
    0.70991779344185401701E+00
    0.71872503179062807721E+00
    0.72563868720088331443E+00
    0.73076403788968635755E+00
    0.66930671555471277223E+00
    0.67395151664702623862E+00
    0.72469865237358355170E+00
    0.74972065723889058653E+00
    0.75044830453730770881E+00
    0.64599610384027472687E+00
    0.74323630514485783394E+00
    0.72547684453350769207E+00
    0.59123021952477849972E+00
    0.74430204277577061145E+00
    0.64892280813100855497E+00
    0.72444316814186615616E+00
    0.70023865572388221956E+00
    0.73103287187066268160E+00
    0.70029347771716565774E+00
    0.74383281643791465676E+00
    0.74791254738206069952E+00
    0.74128981024131401778E+00
    0.71321381426505103818E+00
    0.67689604402762526547E+00
    0.75055792227130213590E+00
    0.66843903623800260405E+00
    0.70973745461733306339E+00
    0.57429549245095923293E+00
    0.74924790829366560985E+00
    0.73419199875179474990E+00
    0.72594530341201402024E+00
    0.74292698190196493346E+00
    0.74244867684279214348E+00
    0.66626322173244711955E+00
    0.65366556699716404921E+00
    0.59758176405400909026E+00
    0.60330869457452096505E+00
    0.74488422331668469045E+00
    0.73379665618020284423E+00
    0.71383078141365041702E+00
    0.69342242112802732201E+00
    0.68998440910750324928E+00
    0.70300287971650687879E+00
    0.72791777150097847215E+00
    0.73761367355882490049E+00
    0.73201658738715602581E+00
    0.73437466957365038489E+00
    0.74008557401934260689E+00
    0.74284766985537542539E+00
    0.73360704685507005518E+00
    0.70909980943943717868E+00
    0.67791925577948353165E+00
    0.69306456096711177572E+00
    0.69886387631354940364E+00
    0.69770055262492614023E+00
    0.68669000664077151086E+00
    0.66802895661837002894E+00
    0.63775875232451839647E+00
    0.73429839347235037472E+00
    0.73673781198092780365E+00
    0.73546207669371865823E+00
    0.72983772750946773744E+00
    0.71598280053368135167E+00
    0.69102648782473685696E+00
    0.65341966019237196495E+00
