# vtk DataFile Version 3.0
LAPLACIEN  2D
ASCII
DATASET UNSTRUCTURED_GRID
 POINTS         391  float
  0.50371505999999999       0.50367786999999997        0.0000000000000000     
  0.29013556000000001       0.29014535000000002        0.0000000000000000     
  0.70165584999999997       0.71206597999999999        0.0000000000000000     
  0.70304188999999995       0.30176619999999998        0.0000000000000000     
  0.30920671999999999       0.71149227999999998        0.0000000000000000     
  0.79044983999999996       0.49884783999999999        0.0000000000000000     
  0.49102621000000002       0.20968644000000000        0.0000000000000000     
  0.49912957000000002       0.77208717000000004        0.0000000000000000     
  0.21724072999999999       0.48989389000000000        0.0000000000000000     
  0.83255933999999998       0.83046598000000005        0.0000000000000000     
  0.16646774000000000       0.17015694000000001        0.0000000000000000     
  0.83054514999999995       0.16736480000000001        0.0000000000000000     
  0.16953130999999999       0.83265739000000005        0.0000000000000000     
  0.42166445000000002       0.36345201999999999        0.0000000000000000     
  0.64462200999999997       0.56347807999999999        0.0000000000000000     
  0.35324633999999999       0.56311191000000005        0.0000000000000000     
  0.65456411000000003       0.84856860999999995        0.0000000000000000     
  0.35141477999999998       0.15563974000000000        0.0000000000000000     
  0.15290967000000000       0.35206625000000003        0.0000000000000000     
  0.82942241000000005       0.34936866000000000        0.0000000000000000     
  0.84390527000000004       0.64441694999999999        0.0000000000000000     
  0.63699174999999997       0.14284276000000001        0.0000000000000000     
  0.15620682999999999       0.64648446999999998        0.0000000000000000     
  0.36426062999999997       0.85756310999999996        0.0000000000000000     
  0.63489340999999999       0.40519052000000000        0.0000000000000000     
  0.52518872999999999       0.65957078000000002        0.0000000000000000     
  0.32158959999999998       0.42298103999999997        0.0000000000000000     
  0.58861710000000000       0.31711036999999997        0.0000000000000000     
  0.42078418000000001       0.69497151999999995        0.0000000000000000     
  0.48608786999999998       0.89334152000000000        0.0000000000000000     
   9.7084320000000002E-002  0.50000000000000000        0.0000000000000000     
  0.90291568000000000       0.50000000000000000        0.0000000000000000     
  0.51392453000000005       0.10668648999999999        0.0000000000000000     
  0.59792566999999996       0.73122754000000001        0.0000000000000000     
  0.74510058999999995       0.41124730999999998        0.0000000000000000     
  0.73212551999999997       0.90191560000000004        0.0000000000000000     
   9.7784830000000003E-002  0.26957329000000002        0.0000000000000000     
  0.26711221000000002        9.8671499999999995E-002   0.0000000000000000     
  0.90191560000000004       0.26787448000000003        0.0000000000000000     
  0.90118569000000004       0.73039821000000005        0.0000000000000000     
  0.73122947000000005        9.8017859999999998E-002   0.0000000000000000     
   9.8084400000000002E-002  0.73212551999999997        0.0000000000000000     
  0.26957329000000002       0.90221516999999996        0.0000000000000000     
  0.39283522999999998       0.25360379000000000        0.0000000000000000     
  0.74480864000000002       0.60495284999999999        0.0000000000000000     
  0.25505132000000003       0.60593640999999998        0.0000000000000000     
  0.52159297999999998       0.40671636000000000        0.0000000000000000     
  0.40768852000000000       0.47699891000000000        0.0000000000000000     
   9.1467049999999994E-002   9.1876959999999994E-002   0.0000000000000000     
  0.90842484999999995       0.90819225000000003        0.0000000000000000     
  0.90820104999999995        9.1566729999999999E-002   0.0000000000000000     
   9.1807449999999999E-002  0.90843574000000005        0.0000000000000000     
  0.27098960000000000       0.20527094000000001        0.0000000000000000     
  0.73457293999999995       0.79835387000000002        0.0000000000000000     
  0.79817773000000003       0.25713470999999999        0.0000000000000000     
  0.20747797000000001       0.72863946000000002        0.0000000000000000     
  0.20175195000000001       0.27583914999999998        0.0000000000000000     
  0.79603889000000005       0.72159035000000005        0.0000000000000000     
  0.71761666000000002       0.19748431999999999        0.0000000000000000     
  0.28462607000000001       0.80251899999999998        0.0000000000000000     
  0.69134598999999997       0.49261972999999998        0.0000000000000000     
  0.44720578999999999       0.58582935999999997        0.0000000000000000     
  0.24242269999999999       0.37228174000000003        0.0000000000000000     
  0.38265623999999998       0.93072131999999996        0.0000000000000000     
  0.60971754000000000       0.91988369000000003        0.0000000000000000     
   7.9163609999999995E-002  0.60979116000000000        0.0000000000000000     
  0.92010649000000000       0.61081183999999999        0.0000000000000000     
  0.61954008999999999        7.1530830000000004E-002   0.0000000000000000     
  0.91882012999999996       0.38917363999999999        0.0000000000000000     
  0.39086346000000000        8.0652249999999995E-002   0.0000000000000000     
   7.9183480000000001E-002  0.38966213000000000        0.0000000000000000     
  0.59114111999999996       0.49294315000000000        0.0000000000000000     
  0.63337980999999999       0.64485914000000000        0.0000000000000000     
  0.50012352000000004       0.29676539000000002        0.0000000000000000     
  0.82552601000000003       0.92753492000000004        0.0000000000000000     
  0.92774772999999999       0.82498556999999995        0.0000000000000000     
   7.1970870000000006E-002  0.17510291000000000        0.0000000000000000     
  0.17422821999999999        7.2635640000000001E-002   0.0000000000000000     
  0.82510813000000005        7.2134840000000006E-002   0.0000000000000000     
  0.92754665000000003       0.17446275999999999        0.0000000000000000     
  0.17501022999999999       0.92789951999999998        0.0000000000000000     
   7.2464680000000004E-002  0.82554053000000005        0.0000000000000000     
  0.30731587999999999       0.50885354999999999        0.0000000000000000     
  0.59033407999999998       0.22171178999999999        0.0000000000000000     
  0.40109191999999999       0.78725542000000004        0.0000000000000000     
  0.35420917000000002       0.63754104000000000        0.0000000000000000     
  0.15983976999999999       0.56665573000000002        0.0000000000000000     
  0.84108459999999996       0.56757886999999996        0.0000000000000000     
  0.83902096000000004       0.43344338999999998        0.0000000000000000     
  0.43230028999999998       0.16004268999999999        0.0000000000000000     
  0.57536027999999995       0.83041363999999995        0.0000000000000000     
  0.15771898000000001       0.42747892999999998        0.0000000000000000     
  0.34021692999999997       0.34221559000000001        0.0000000000000000     
  0.56002271999999997       0.57501117999999996        0.0000000000000000     
  0.65344329000000001       0.78147597999999996        0.0000000000000000     
   0.0000000000000000        0.0000000000000000        0.0000000000000000     
   1.0000000000000000        0.0000000000000000        0.0000000000000000     
   1.0000000000000000        1.0000000000000000        0.0000000000000000     
   0.0000000000000000        1.0000000000000000        0.0000000000000000     
  0.11111111000000000        0.0000000000000000        0.0000000000000000     
  0.22222222000000000        0.0000000000000000        0.0000000000000000     
  0.33333332999999998        0.0000000000000000        0.0000000000000000     
  0.44444444000000000        0.0000000000000000        0.0000000000000000     
  0.55555555999999995        0.0000000000000000        0.0000000000000000     
  0.66666667000000002        0.0000000000000000        0.0000000000000000     
  0.77777777999999997        0.0000000000000000        0.0000000000000000     
  0.88888889000000004        0.0000000000000000        0.0000000000000000     
   1.0000000000000000       0.11111111000000000        0.0000000000000000     
   1.0000000000000000       0.22222222000000000        0.0000000000000000     
   1.0000000000000000       0.33333332999999998        0.0000000000000000     
   1.0000000000000000       0.44444444000000000        0.0000000000000000     
   1.0000000000000000       0.55555555999999995        0.0000000000000000     
   1.0000000000000000       0.66666667000000002        0.0000000000000000     
   1.0000000000000000       0.77777777999999997        0.0000000000000000     
   1.0000000000000000       0.88888889000000004        0.0000000000000000     
  0.88888889000000004        1.0000000000000000        0.0000000000000000     
  0.77777777999999997        1.0000000000000000        0.0000000000000000     
  0.66666667000000002        1.0000000000000000        0.0000000000000000     
  0.55555555999999995        1.0000000000000000        0.0000000000000000     
  0.44444444000000000        1.0000000000000000        0.0000000000000000     
  0.33333332999999998        1.0000000000000000        0.0000000000000000     
  0.22222222000000000        1.0000000000000000        0.0000000000000000     
  0.11111111000000000        1.0000000000000000        0.0000000000000000     
   0.0000000000000000       0.11111111000000000        0.0000000000000000     
   0.0000000000000000       0.22222222000000000        0.0000000000000000     
[...]
 CELL_DATA         354
 SCALARS E float
 LOOKUP_TABLE default
    0.72428326389461528123E+00
    0.72046271284210749997E+00
    0.66430997769435307099E+00
    0.61050928428001971504E+00
    0.73452632922125782322E+00
    0.73528786597155859628E+00
    0.71396044941154457319E+00
    0.72729968225178931451E+00
    0.71382849911592127778E+00
    0.70444890941818882890E+00
    0.66971571975912702612E+00
    0.68786459486651152506E+00
    0.66379116572100138605E+00
    0.66786442922906708031E+00
    0.67663257247884978085E+00
    0.67056003048406265243E+00
    0.68724278196528920670E+00
    0.70226261557587188467E+00
    0.72863571966380757949E+00
    0.72269876675610367212E+00
    0.72546951654712921176E+00
    0.71778131187608396058E+00
    0.71534123070504507247E+00
    0.71691802191960052326E+00
    0.71164059659542555636E+00
    0.71006345206591148234E+00
    0.72429751648935147834E+00
    0.71888105092234921845E+00
    0.71403336367695191544E+00
    0.72837475245338356711E+00
    0.73092019071497715821E+00
    0.73292539889812013953E+00
    0.72570795994809278451E+00
    0.71617258752237256125E+00
    0.68662022570774439156E+00
    0.70102673029822937245E+00
    0.67628879618879678137E+00
    0.68236553675668665253E+00
    0.69965968578933201982E+00
    0.69130826861774941072E+00
    0.70330818258582361580E+00
    0.70450162997757881378E+00
    0.70731639333292140037E+00
    0.70603046753472553654E+00
    0.70532005113423124065E+00
    0.69763961125204465574E+00
    0.68472720037802603521E+00
    0.68978179511794812662E+00
    0.67408085014857888062E+00
    0.65865022349400581536E+00
    0.62943772630248362443E+00
    0.64181758460595828009E+00
    0.72888874230718525560E+00
    0.73055677316891498574E+00
    0.73301784143527892734E+00
    0.73219767611706187971E+00
    0.73112373085773052495E+00
    0.73117074868395981468E+00
    0.72964994773214253421E+00
    0.73086256302364205339E+00
    0.72596183467587360738E+00
    0.72107510989504763899E+00
    0.70311240954832154859E+00
    0.71257838207377355300E+00
    0.68963508389075389715E+00
    0.67219843455821703948E+00
    0.63392797588333815728E+00
    0.65159714755048991908E+00
    0.62240036536704768100E+00
    0.65421926299972488206E+00
    0.67314030807341451723E+00
    0.63808593230574062183E+00
    0.66383894267568566150E+00
    0.66177484151413867863E+00
    0.69073977041462963911E+00
    0.70518843557646893050E+00
    0.69842309836473293050E+00
    0.67487357498264033406E+00
    0.72017509021402337233E+00
    0.72062536499130469547E+00
    0.73468601134426170240E+00
    0.72623938413167632433E+00
    0.72595806262901529937E+00
    0.72426434326654454132E+00
    0.63000677328059440097E+00
    0.57628269623092254204E+00
    0.51410414080774446965E+00
    0.61989750702040524732E+00
    0.62220199003928655657E+00
    0.60967052270471500108E+00
    0.55474211991293531643E+00
    0.73128743525405937032E+00
    0.72839574855033262235E+00
    0.73470650507457824219E+00
    0.73364018826274002283E+00
    0.73394055696393356580E+00
    0.72574052854835191528E+00
    0.70605370126135347242E+00
    0.66117246910051508113E+00
    0.69509496877075482857E+00
    0.66970608996456015838E+00
    0.70358822403334175810E+00
    0.68663125519288914500E+00
    0.61211085587937341668E+00
    0.60813061966617443233E+00
    0.56709460505482522930E+00
    0.56880471995123516038E+00
    0.61614574573085501008E+00
    0.71764826517468005562E+00
    0.72624960430041762827E+00
    0.73594752880149383323E+00
    0.72606957232062352414E+00
    0.73509083188247026364E+00
    0.73368799914978555243E+00
    0.71109530911027085676E+00
    0.73159657480807127605E+00
    0.72622001685326131870E+00
    0.71842657231592721434E+00
    0.72843564643897096289E+00
    0.71777281258045233514E+00
    0.73155419041095626209E+00
    0.72365863460700574628E+00
    0.73090194451316603530E+00
    0.71289844307825811498E+00
    0.73362567423535773870E+00
    0.73456911060697549498E+00
    0.71369266342293902206E+00
    0.72167861489523343899E+00
    0.72432600103886579657E+00
    0.72179885949759114983E+00
    0.73336892417380228348E+00
    0.73290416801536684144E+00
    0.72683822074988413409E+00
    0.73087217959638028919E+00
    0.72180029131369027873E+00
    0.69062166173250771894E+00
    0.67238519826009424118E+00
    0.70441751106316419229E+00
    0.66615876692593889441E+00
    0.65228631746958576354E+00
    0.69288635381537166946E+00
    0.70207543572115693742E+00
    0.70742336046463138999E+00
    0.70183205523626357447E+00
    0.67752305075849172944E+00
    0.71962524317482368108E+00
    0.71763085304897944461E+00
    0.68458667102582937414E+00
    0.68892459576377951258E+00
    0.65249947260724427966E+00
    0.62082996576842419678E+00
    0.60730032188313698427E+00
    0.63810046796265451619E+00
    0.59664309911221413696E+00
    0.64348880666608232470E+00
    0.69431822227334993869E+00
    0.66605626723290889402E+00
    0.65459752705573748255E+00
    0.69704241555735935165E+00
    0.67784995956037108478E+00
    0.72730631597322548121E+00
    0.68761994034836815270E+00
    0.69911682444475409248E+00
    0.70681682029511527787E+00
    0.72263403910451717849E+00
    0.72945214601227936768E+00
    0.73584536426423730049E+00
    0.73034978674286721301E+00
    0.73344971901127609115E+00
    0.73527610768784290585E+00
    0.70165933458646245757E+00
    0.65600076591194822484E+00
    0.68787250146349698809E+00
    0.68460519916431328280E+00
    0.65846279399839757751E+00
    0.73162813177568097878E+00
    0.72658013056010617436E+00
    0.71628788051964442651E+00
    0.73558538344355961502E+00
    0.72136589668889739002E+00
    0.64886906305555203112E+00
    0.68664196075265881980E+00
    0.65840935362526042951E+00
    0.69356172615929911895E+00
    0.67839669029977112125E+00
    0.73831422609056107653E+00
    0.72212439241421466640E+00
    0.72518021833802803755E+00
    0.73094212055048812804E+00
    0.72594906339732201417E+00
    0.62274159103241943924E+00
    0.64070955831690779014E+00
    0.61488771545003895191E+00
    0.63871569225221713761E+00
    0.59418708942343823054E+00
    0.72746262226090152581E+00
    0.73435358581414789114E+00
    0.73186534223961385859E+00
    0.73298151713316994638E+00
    0.73602757746747127232E+00
    0.72307155534878297942E+00
    0.71656098641782217662E+00
    0.72669036822045762758E+00
    0.71666278509958813991E+00
    0.72911264121328644983E+00
    0.53100983003330126664E+00
    0.61821612968262529275E+00
    0.57865754802240099153E+00
    0.62048062734064801660E+00
    0.61642083238454181693E+00
    0.72241841931528738563E+00
    0.72261883717154906659E+00
    0.70973661362333895219E+00
    0.71558284796988846921E+00
    0.69920190515977220791E+00
    0.67135948840398862458E+00
    0.69783692360046112313E+00
    0.69812705406984298939E+00
    0.67332602148682885179E+00
    0.52464439103355919869E+00
    0.51570329629455213816E+00
    0.50830820417826694246E+00
    0.72289803073750191764E+00
    0.73018081782403310154E+00
    0.73027252204459469631E+00
    0.71481668973085066288E+00
    0.72226415212666217336E+00
    0.73283785410964719098E+00
    0.73205288474550656019E+00
    0.73314756585698259705E+00
    0.73604547877691284263E+00
    0.73427017064559474413E+00
    0.73596004992260577460E+00
    0.72730455257781090328E+00
    0.72346606762158027770E+00
    0.72281619598838953156E+00
    0.70657828617363949153E+00
    0.64824079446058624487E+00
    0.66337122235820100702E+00
    0.60273277547369552565E+00
    0.63861253712945742489E+00
    0.72589345672765603901E+00
    0.73477584867517165002E+00
    0.72591999012489782928E+00
    0.64132245604825433016E+00
    0.66295723110325455174E+00
    0.73021823111276829010E+00
    0.72043700759294537761E+00
    0.71013641632032176165E+00
    0.71947225501075695586E+00
    0.73597313451165891074E+00
    0.73273460586183758458E+00
    0.71825643052331411553E+00
    0.70693895733241163271E+00
    0.71084063326333857269E+00
    0.67749882891420543096E+00
    0.70728679921556469878E+00
    0.71141376593833649533E+00
    0.73575846433816782799E+00
    0.73788727448572433154E+00
    0.72569795759136468405E+00
    0.64403293754899482160E+00
    0.66021551180114912416E+00
    0.68593881598841111025E+00
    0.72313868773843692495E+00
    0.72133845654473482956E+00
    0.69337609872129335464E+00
    0.71651747963133649577E+00
    0.70461882840217016089E+00
    0.68349916922494768912E+00
    0.66707828369593613616E+00
    0.59759293952327952049E+00
    0.63451010069165314498E+00
    0.64801069848600700851E+00
    0.71069781733183079453E+00
    0.68241195513058772182E+00
    0.71499776313989304999E+00
    0.71858845015641736875E+00
    0.73282480585986353727E+00
    0.73058740009155465067E+00
    0.73008549732472993732E+00
    0.72227235890444418942E+00
    0.62547779837807027103E+00
    0.61637597212832839766E+00
    0.55972471871768292306E+00
    0.67987855505678718160E+00
    0.68667259536958213939E+00
    0.73603818610987004067E+00
    0.73492503514342688575E+00
    0.69914459367576364812E+00
    0.70767660491378259202E+00
    0.71836085738878430185E+00
    0.71930138954536360085E+00
    0.65967346212138189276E+00
    0.66442046208930138906E+00
    0.71831704558944664551E+00
    0.73528784707162819778E+00
    0.73817759293915696794E+00
    0.63402091836606488950E+00
    0.73050988397349281289E+00
    0.71792131021403793323E+00
    0.59940521008678582238E+00
    0.73176458579509073843E+00
    0.63882116781981856946E+00
    0.71659842088248248970E+00
    0.68800637464963620982E+00
    0.71291418503309211818E+00
    0.68790075868375910595E+00
    0.73044437109691495724E+00
    0.73537620966049455085E+00
    0.72499173634934532817E+00
    0.70167685890678355154E+00
    0.66256566896033863845E+00
    0.73507372496811418383E+00
    0.65523835724794976532E+00
    0.69737504427093233161E+00
    0.53851122265009809809E+00
    0.73666526572581791932E+00
    0.72370145720909806464E+00
    0.71689107991900502537E+00
    0.73004811902276489644E+00
    0.73090922611885056348E+00
    0.65843724504682732412E+00
    0.64835204765674769867E+00
    0.59445134478504568776E+00
    0.59833239386595771236E+00
    0.73420728868599183237E+00
    0.72055738709002870035E+00
    0.70511664039736832166E+00
    0.68692319107347254992E+00
    0.68405863682575918094E+00
    0.69622571658577125930E+00
    0.71882468680932487537E+00
    0.72291086397333459423E+00
    0.72235830774511899932E+00
    0.71865300340812832136E+00
    0.72433306817503562147E+00
    0.73347307977348452646E+00
    0.72404009249262979431E+00
    0.69985962504803733708E+00
    0.67140033084606964842E+00
    0.68648735527279303170E+00
    0.69217700595803466346E+00
    0.69105380352339285110E+00
    0.68039561257817915418E+00
    0.66256599715271091711E+00
    0.63294966841015809500E+00
    0.72505989649068391945E+00
    0.72787923459268133453E+00
    0.72680719935444759727E+00
    0.72112960313555107827E+00
    0.70789737741646074909E+00
    0.68404577316172665569E+00
    0.64730035137914188059E+00
