# vtk DataFile Version 3.0
LAPLACIEN  2D
ASCII
DATASET UNSTRUCTURED_GRID
 POINTS         391  float
  0.50371505999999999       0.50367786999999997        0.0000000000000000     
  0.29013556000000001       0.29014535000000002        0.0000000000000000     
  0.70165584999999997       0.71206597999999999        0.0000000000000000     
  0.70304188999999995       0.30176619999999998        0.0000000000000000     
  0.30920671999999999       0.71149227999999998        0.0000000000000000     
  0.79044983999999996       0.49884783999999999        0.0000000000000000     
  0.49102621000000002       0.20968644000000000        0.0000000000000000     
  0.49912957000000002       0.77208717000000004        0.0000000000000000     
  0.21724072999999999       0.48989389000000000        0.0000000000000000     
  0.83255933999999998       0.83046598000000005        0.0000000000000000     
  0.16646774000000000       0.17015694000000001        0.0000000000000000     
  0.83054514999999995       0.16736480000000001        0.0000000000000000     
  0.16953130999999999       0.83265739000000005        0.0000000000000000     
  0.42166445000000002       0.36345201999999999        0.0000000000000000     
  0.64462200999999997       0.56347807999999999        0.0000000000000000     
  0.35324633999999999       0.56311191000000005        0.0000000000000000     
  0.65456411000000003       0.84856860999999995        0.0000000000000000     
  0.35141477999999998       0.15563974000000000        0.0000000000000000     
  0.15290967000000000       0.35206625000000003        0.0000000000000000     
  0.82942241000000005       0.34936866000000000        0.0000000000000000     
  0.84390527000000004       0.64441694999999999        0.0000000000000000     
  0.63699174999999997       0.14284276000000001        0.0000000000000000     
  0.15620682999999999       0.64648446999999998        0.0000000000000000     
  0.36426062999999997       0.85756310999999996        0.0000000000000000     
  0.63489340999999999       0.40519052000000000        0.0000000000000000     
  0.52518872999999999       0.65957078000000002        0.0000000000000000     
  0.32158959999999998       0.42298103999999997        0.0000000000000000     
  0.58861710000000000       0.31711036999999997        0.0000000000000000     
  0.42078418000000001       0.69497151999999995        0.0000000000000000     
  0.48608786999999998       0.89334152000000000        0.0000000000000000     
   9.7084320000000002E-002  0.50000000000000000        0.0000000000000000     
  0.90291568000000000       0.50000000000000000        0.0000000000000000     
  0.51392453000000005       0.10668648999999999        0.0000000000000000     
  0.59792566999999996       0.73122754000000001        0.0000000000000000     
  0.74510058999999995       0.41124730999999998        0.0000000000000000     
  0.73212551999999997       0.90191560000000004        0.0000000000000000     
   9.7784830000000003E-002  0.26957329000000002        0.0000000000000000     
  0.26711221000000002        9.8671499999999995E-002   0.0000000000000000     
  0.90191560000000004       0.26787448000000003        0.0000000000000000     
  0.90118569000000004       0.73039821000000005        0.0000000000000000     
  0.73122947000000005        9.8017859999999998E-002   0.0000000000000000     
   9.8084400000000002E-002  0.73212551999999997        0.0000000000000000     
  0.26957329000000002       0.90221516999999996        0.0000000000000000     
  0.39283522999999998       0.25360379000000000        0.0000000000000000     
  0.74480864000000002       0.60495284999999999        0.0000000000000000     
  0.25505132000000003       0.60593640999999998        0.0000000000000000     
  0.52159297999999998       0.40671636000000000        0.0000000000000000     
  0.40768852000000000       0.47699891000000000        0.0000000000000000     
   9.1467049999999994E-002   9.1876959999999994E-002   0.0000000000000000     
  0.90842484999999995       0.90819225000000003        0.0000000000000000     
  0.90820104999999995        9.1566729999999999E-002   0.0000000000000000     
   9.1807449999999999E-002  0.90843574000000005        0.0000000000000000     
  0.27098960000000000       0.20527094000000001        0.0000000000000000     
  0.73457293999999995       0.79835387000000002        0.0000000000000000     
  0.79817773000000003       0.25713470999999999        0.0000000000000000     
  0.20747797000000001       0.72863946000000002        0.0000000000000000     
  0.20175195000000001       0.27583914999999998        0.0000000000000000     
  0.79603889000000005       0.72159035000000005        0.0000000000000000     
  0.71761666000000002       0.19748431999999999        0.0000000000000000     
  0.28462607000000001       0.80251899999999998        0.0000000000000000     
  0.69134598999999997       0.49261972999999998        0.0000000000000000     
  0.44720578999999999       0.58582935999999997        0.0000000000000000     
  0.24242269999999999       0.37228174000000003        0.0000000000000000     
  0.38265623999999998       0.93072131999999996        0.0000000000000000     
  0.60971754000000000       0.91988369000000003        0.0000000000000000     
   7.9163609999999995E-002  0.60979116000000000        0.0000000000000000     
  0.92010649000000000       0.61081183999999999        0.0000000000000000     
  0.61954008999999999        7.1530830000000004E-002   0.0000000000000000     
  0.91882012999999996       0.38917363999999999        0.0000000000000000     
  0.39086346000000000        8.0652249999999995E-002   0.0000000000000000     
   7.9183480000000001E-002  0.38966213000000000        0.0000000000000000     
  0.59114111999999996       0.49294315000000000        0.0000000000000000     
  0.63337980999999999       0.64485914000000000        0.0000000000000000     
  0.50012352000000004       0.29676539000000002        0.0000000000000000     
  0.82552601000000003       0.92753492000000004        0.0000000000000000     
  0.92774772999999999       0.82498556999999995        0.0000000000000000     
   7.1970870000000006E-002  0.17510291000000000        0.0000000000000000     
  0.17422821999999999        7.2635640000000001E-002   0.0000000000000000     
  0.82510813000000005        7.2134840000000006E-002   0.0000000000000000     
  0.92754665000000003       0.17446275999999999        0.0000000000000000     
  0.17501022999999999       0.92789951999999998        0.0000000000000000     
   7.2464680000000004E-002  0.82554053000000005        0.0000000000000000     
  0.30731587999999999       0.50885354999999999        0.0000000000000000     
  0.59033407999999998       0.22171178999999999        0.0000000000000000     
  0.40109191999999999       0.78725542000000004        0.0000000000000000     
  0.35420917000000002       0.63754104000000000        0.0000000000000000     
  0.15983976999999999       0.56665573000000002        0.0000000000000000     
  0.84108459999999996       0.56757886999999996        0.0000000000000000     
  0.83902096000000004       0.43344338999999998        0.0000000000000000     
  0.43230028999999998       0.16004268999999999        0.0000000000000000     
  0.57536027999999995       0.83041363999999995        0.0000000000000000     
  0.15771898000000001       0.42747892999999998        0.0000000000000000     
  0.34021692999999997       0.34221559000000001        0.0000000000000000     
  0.56002271999999997       0.57501117999999996        0.0000000000000000     
  0.65344329000000001       0.78147597999999996        0.0000000000000000     
   0.0000000000000000        0.0000000000000000        0.0000000000000000     
   1.0000000000000000        0.0000000000000000        0.0000000000000000     
   1.0000000000000000        1.0000000000000000        0.0000000000000000     
   0.0000000000000000        1.0000000000000000        0.0000000000000000     
  0.11111111000000000        0.0000000000000000        0.0000000000000000     
  0.22222222000000000        0.0000000000000000        0.0000000000000000     
  0.33333332999999998        0.0000000000000000        0.0000000000000000     
  0.44444444000000000        0.0000000000000000        0.0000000000000000     
  0.55555555999999995        0.0000000000000000        0.0000000000000000     
  0.66666667000000002        0.0000000000000000        0.0000000000000000     
  0.77777777999999997        0.0000000000000000        0.0000000000000000     
  0.88888889000000004        0.0000000000000000        0.0000000000000000     
   1.0000000000000000       0.11111111000000000        0.0000000000000000     
   1.0000000000000000       0.22222222000000000        0.0000000000000000     
   1.0000000000000000       0.33333332999999998        0.0000000000000000     
   1.0000000000000000       0.44444444000000000        0.0000000000000000     
   1.0000000000000000       0.55555555999999995        0.0000000000000000     
   1.0000000000000000       0.66666667000000002        0.0000000000000000     
   1.0000000000000000       0.77777777999999997        0.0000000000000000     
   1.0000000000000000       0.88888889000000004        0.0000000000000000     
  0.88888889000000004        1.0000000000000000        0.0000000000000000     
  0.77777777999999997        1.0000000000000000        0.0000000000000000     
  0.66666667000000002        1.0000000000000000        0.0000000000000000     
  0.55555555999999995        1.0000000000000000        0.0000000000000000     
  0.44444444000000000        1.0000000000000000        0.0000000000000000     
  0.33333332999999998        1.0000000000000000        0.0000000000000000     
  0.22222222000000000        1.0000000000000000        0.0000000000000000     
  0.11111111000000000        1.0000000000000000        0.0000000000000000     
   0.0000000000000000       0.11111111000000000        0.0000000000000000     
   0.0000000000000000       0.22222222000000000        0.0000000000000000     
[...]
 CELL_DATA         354
 SCALARS E float
 LOOKUP_TABLE default
    0.72813417629448062840E+00
    0.73098252343666092479E+00
    0.66623296804354770195E+00
    0.61015139127955597687E+00
    0.74512561594234139051E+00
    0.74375063337650004769E+00
    0.72627241108694695626E+00
    0.73927228046798321159E+00
    0.71692463118983584813E+00
    0.70393776898290449928E+00
    0.66333703739416993717E+00
    0.68402270681794907770E+00
    0.66040544464801620439E+00
    0.66227767723488295548E+00
    0.67224636566358508816E+00
    0.66569033578992831135E+00
    0.68527504749624512659E+00
    0.70755783128206028998E+00
    0.73491244922160725572E+00
    0.72256023721535134197E+00
    0.73283829909167974570E+00
    0.72923921578492867379E+00
    0.71489087467693346323E+00
    0.72282009714291539648E+00
    0.70905129857761173273E+00
    0.71435149531243491428E+00
    0.72643871810176352533E+00
    0.72172655012687780829E+00
    0.72939588754121276182E+00
    0.73699521179200688792E+00
    0.73775702498939699225E+00
    0.73974879722244124558E+00
    0.72942238837608974755E+00
    0.72170856960783980050E+00
    0.69541246199121919958E+00
    0.70878029913670848039E+00
    0.68026173419885394011E+00
    0.68730798863210995631E+00
    0.70224566371517138652E+00
    0.69462374549520866651E+00
    0.70532706589013338672E+00
    0.70738721122159020638E+00
    0.70888977520572904467E+00
    0.70874281749267575847E+00
    0.70703470193781114972E+00
    0.69978884227971516196E+00
    0.68676479583896987702E+00
    0.69223262706524846255E+00
    0.67575182960743584992E+00
    0.66090553882049773993E+00
    0.63302760794774903808E+00
    0.64612968283721827767E+00
    0.73383377457641085773E+00
    0.73610358814477716560E+00
    0.73579118869064741304E+00
    0.73602477331446736208E+00
    0.73334273028846663767E+00
    0.73435884848893195898E+00
    0.73411412897874805950E+00
    0.73537665506986205077E+00
    0.72953054651711513046E+00
    0.72540297867781089458E+00
    0.70684834514078709322E+00
    0.71757474791594377805E+00
    0.69207948548970255054E+00
    0.67559656600786155423E+00
    0.63989052120978040517E+00
    0.65688424457179828142E+00
    0.62748808762823460317E+00
    0.66550192558634113649E+00
    0.69432541415314974476E+00
    0.64625383909382450032E+00
    0.68341469528400844435E+00
    0.66660577280285315815E+00
    0.69985045033539150516E+00
    0.72020388102519150575E+00
    0.71595425919973354478E+00
    0.68793169325232805811E+00
    0.73792785140226047069E+00
    0.72791127080750039902E+00
    0.74772749482633338314E+00
    0.74260072062419701933E+00
    0.73340366226704889474E+00
    0.73930407945415366200E+00
    0.64303492376453885715E+00
    0.61664023542138390876E+00
    0.64546519851182249106E+00
    0.62474956312783458401E+00
    0.63688495353591778603E+00
    0.60828278954338554918E+00
    0.62033632492247159362E+00
    0.75326713424546443143E+00
    0.75110963946208708641E+00
    0.74870138742350089700E+00
    0.74663798275046955322E+00
    0.75011045880282178899E+00
    0.75265077324011919746E+00
    0.71887607431816658021E+00
    0.67135010916195592134E+00
    0.70644141193968346126E+00
    0.68573111920989360257E+00
    0.70795986897053198028E+00
    0.70073057861399401514E+00
    0.63317524224927823617E+00
    0.63236092227550377842E+00
    0.59488856931076539158E+00
    0.59183134178258034463E+00
    0.62608331962187169228E+00
    0.74117813189677705932E+00
    0.74357799677077984768E+00
    0.75215179361975215144E+00
    0.74458595053930265451E+00
    0.75166741118446511738E+00
    0.74778560158710127848E+00
    0.72697961012235134959E+00
    0.74785536017751752524E+00
    0.74281189539506442543E+00
    0.72704501737652016402E+00
    0.73543000130496871680E+00
    0.73858492797875996416E+00
    0.73759318652529048954E+00
    0.73553970949377478483E+00
    0.74273117398232979536E+00
    0.72255491424430018377E+00
    0.74951209549273856148E+00
    0.74961565481806347044E+00
    0.72074983467639042178E+00
    0.73029710001030323507E+00
    0.74306746847544680179E+00
    0.73399556764192896985E+00
    0.74514625933531286606E+00
    0.73544013437633148911E+00
    0.74162189948149981333E+00
    0.74088418849652470932E+00
    0.73887751399129131258E+00
    0.70187887314341157463E+00
    0.68157399957982278682E+00
    0.71376518904149444111E+00
    0.68609970320994129178E+00
    0.67164876781181859222E+00
    0.69539546451747480393E+00
    0.70267617966382500683E+00
    0.71731478399659065470E+00
    0.71097734836179471429E+00
    0.68538672892741892007E+00
    0.73425970071055313149E+00
    0.73152858241420082308E+00
    0.69047736798640213518E+00
    0.69517996822325733852E+00
    0.66228937803829901476E+00
    0.63274592676458518703E+00
    0.62443854203134874226E+00
    0.65449423344578872008E+00
    0.61365364331263827502E+00
    0.64792797371807031581E+00
    0.71494411251456824186E+00
    0.67817110779701605949E+00
    0.66239223445399553203E+00
    0.71369485546548250277E+00
    0.69280558259530544696E+00
    0.74436539784874211634E+00
    0.69124134688823324346E+00
    0.70904370645461001210E+00
    0.72172550748778097063E+00
    0.73232926607794635032E+00
    0.74733217441205823661E+00
    0.75077911931463148232E+00
    0.74853549750979242461E+00
    0.74599291439876425081E+00
    0.74862685644810555985E+00
    0.72153704156762565880E+00
    0.66863158337955042043E+00
    0.70132234635267109990E+00
    0.70500015394186699158E+00
    0.66899886646045803040E+00
    0.75346098799544392044E+00
    0.73656050097437253399E+00
    0.72854353251317716111E+00
    0.75536762346551400427E+00
    0.74314343860135589903E+00
    0.65522894144487842105E+00
    0.70327634317670062458E+00
    0.66934332957599251834E+00
    0.71040968259210124369E+00
    0.68508184595314125520E+00
    0.75560349318195207946E+00
    0.73107866544186073110E+00
    0.74547182476989526378E+00
    0.75290342507631247138E+00
    0.73507407529182589023E+00
    0.63248714375046066749E+00
    0.66378584200259371784E+00
    0.62537136668029824627E+00
    0.64458306945255183784E+00
    0.61631178378634998705E+00
    0.74415590117255370206E+00
    0.74388323899734221101E+00
    0.74357434852370318801E+00
    0.74971011525511177531E+00
    0.74689368882682760642E+00
    0.73193279204890748790E+00
    0.73119844898948693768E+00
    0.73647082019619247717E+00
    0.72655100710835962552E+00
    0.74030853754675784995E+00
    0.61851569492844837850E+00
    0.61803463155817106589E+00
    0.61033900093928428188E+00
    0.63454789086849694435E+00
    0.62223648133703535201E+00
    0.73620438308895219670E+00
    0.73386355195898789194E+00
    0.71665732297111239824E+00
    0.72487609449550483021E+00
    0.71147878514298401598E+00
    0.67859344901992491028E+00
    0.71763583282018583720E+00
    0.70835821976290513913E+00
    0.68736817304064579126E+00
    0.62310789019614210016E+00
    0.64246391907425703938E+00
    0.65864200027018171557E+00
    0.72591582357546191595E+00
    0.74713990218704240398E+00
    0.74043004902508524623E+00
    0.72047870625025023372E+00
    0.73669089650407149072E+00
    0.74952339007527346570E+00
    0.74875435427391623389E+00
    0.74677638069102991736E+00
    0.75293588222822638301E+00
    0.74920988346715344797E+00
    0.75592622575590517897E+00
    0.74294881068040963257E+00
    0.73214199652037403876E+00
    0.73063450387666972752E+00
    0.72731486171665371554E+00
    0.64297935995072841298E+00
    0.68109342209465284501E+00
    0.63746993717793820622E+00
    0.65923455304754541295E+00
    0.73386339369560538159E+00
    0.74744431842294012380E+00
    0.74211482508299153604E+00
    0.65268579224550682394E+00
    0.66593218738817960833E+00
    0.74601543454766461316E+00
    0.73668461871134693908E+00
    0.71791107229007644630E+00
    0.74522718049967018317E+00
    0.75279511341966465210E+00
    0.74369863700568694664E+00
    0.72646822538724609153E+00
    0.72491432320810034184E+00
    0.73252214266500670359E+00
    0.69841251877669341397E+00
    0.71779248079369983859E+00
    0.71143068737819070702E+00
    0.75265590519645664269E+00
    0.75536851467803878268E+00
    0.73281320427253560101E+00
    0.66467496950595961192E+00
    0.68103068164876146007E+00
    0.68809274801291331336E+00
    0.73780423055684341005E+00
    0.73739156261536986658E+00
    0.69938737309539045217E+00
    0.72972972941350944254E+00
    0.71824459904766158047E+00
    0.68955445628076805775E+00
    0.67627689479509733861E+00
    0.63137033167967560043E+00
    0.64377258291954009284E+00
    0.64911878110685339305E+00
    0.73323012127609987765E+00
    0.70299872350906333907E+00
    0.72350798167944696537E+00
    0.71837257401628995535E+00
    0.74422679619485077041E+00
    0.74637205115918314746E+00
    0.74821781356135674823E+00
    0.74168271470598212680E+00
    0.64349967436215282923E+00
    0.61527548267613840771E+00
    0.61513271026771532135E+00
    0.69130094425336185981E+00
    0.69223322575980728022E+00
    0.74761574869676050703E+00
    0.74844667483276350328E+00
    0.70947073956960382546E+00
    0.71877153240267133150E+00
    0.72557303350478308257E+00
    0.73003342587761399507E+00
    0.66906336375313546494E+00
    0.67375446208403555470E+00
    0.72784078217942593803E+00
    0.75046153076724153586E+00
    0.75169017570626095459E+00
    0.64954762351066186454E+00
    0.74455947239077224786E+00
    0.72503692949167541926E+00
    0.59102903143447660383E+00
    0.74134438788655476760E+00
    0.64904676394340476975E+00
    0.72146473056689530701E+00
    0.70331978332691358347E+00
    0.72418728122904307831E+00
    0.70476375885788500320E+00
    0.74685800891342413177E+00
    0.74981712837057634680E+00
    0.74328938147133294390E+00
    0.71810255628546426632E+00
    0.68390793529737237133E+00
    0.75396162063832417033E+00
    0.66995593779356121811E+00
    0.71428421573711564641E+00
    0.60979918827024259809E+00
    0.74896154265949965723E+00
    0.73125791539841722422E+00
    0.71781414488048267408E+00
    0.73685229282907882542E+00
    0.73265408812222321266E+00
    0.66350689521397421267E+00
    0.64748839272853397908E+00
    0.59283559122259710250E+00
    0.59973451104930164401E+00
    0.73980397589256097213E+00
    0.72213324377688614675E+00
    0.69936419089757739798E+00
    0.67608647211087469220E+00
    0.67072535427262813812E+00
    0.68571907218095917713E+00
    0.71830461285720892395E+00
    0.72612155880953954679E+00
    0.71756763563264225336E+00
    0.72060734540622006783E+00
    0.72845204927387874339E+00
    0.73376078972284497492E+00
    0.72605627992293320094E+00
    0.70520365625613146143E+00
    0.67140863071158607411E+00
    0.68474933373240376433E+00
    0.69039970964097963080E+00
    0.68891189438925071187E+00
    0.67882784023925912820E+00
    0.66055679901145358812E+00
    0.63244873321860095583E+00
    0.72577391156114023918E+00
    0.72665690155325590727E+00
    0.72569710313708413185E+00
    0.72091925543248347452E+00
    0.70826881285205400829E+00
    0.68382331609003310646E+00
    0.64902358461062215067E+00
