# vtk DataFile Version 3.0
LAPLACIEN  2D
ASCII
DATASET UNSTRUCTURED_GRID
 POINTS         391  float
  0.50371505999999999       0.50367786999999997        0.0000000000000000     
  0.29013556000000001       0.29014535000000002        0.0000000000000000     
  0.70165584999999997       0.71206597999999999        0.0000000000000000     
  0.70304188999999995       0.30176619999999998        0.0000000000000000     
  0.30920671999999999       0.71149227999999998        0.0000000000000000     
  0.79044983999999996       0.49884783999999999        0.0000000000000000     
  0.49102621000000002       0.20968644000000000        0.0000000000000000     
  0.49912957000000002       0.77208717000000004        0.0000000000000000     
  0.21724072999999999       0.48989389000000000        0.0000000000000000     
  0.83255933999999998       0.83046598000000005        0.0000000000000000     
  0.16646774000000000       0.17015694000000001        0.0000000000000000     
  0.83054514999999995       0.16736480000000001        0.0000000000000000     
  0.16953130999999999       0.83265739000000005        0.0000000000000000     
  0.42166445000000002       0.36345201999999999        0.0000000000000000     
  0.64462200999999997       0.56347807999999999        0.0000000000000000     
  0.35324633999999999       0.56311191000000005        0.0000000000000000     
  0.65456411000000003       0.84856860999999995        0.0000000000000000     
  0.35141477999999998       0.15563974000000000        0.0000000000000000     
  0.15290967000000000       0.35206625000000003        0.0000000000000000     
  0.82942241000000005       0.34936866000000000        0.0000000000000000     
  0.84390527000000004       0.64441694999999999        0.0000000000000000     
  0.63699174999999997       0.14284276000000001        0.0000000000000000     
  0.15620682999999999       0.64648446999999998        0.0000000000000000     
  0.36426062999999997       0.85756310999999996        0.0000000000000000     
  0.63489340999999999       0.40519052000000000        0.0000000000000000     
  0.52518872999999999       0.65957078000000002        0.0000000000000000     
  0.32158959999999998       0.42298103999999997        0.0000000000000000     
  0.58861710000000000       0.31711036999999997        0.0000000000000000     
  0.42078418000000001       0.69497151999999995        0.0000000000000000     
  0.48608786999999998       0.89334152000000000        0.0000000000000000     
   9.7084320000000002E-002  0.50000000000000000        0.0000000000000000     
  0.90291568000000000       0.50000000000000000        0.0000000000000000     
  0.51392453000000005       0.10668648999999999        0.0000000000000000     
  0.59792566999999996       0.73122754000000001        0.0000000000000000     
  0.74510058999999995       0.41124730999999998        0.0000000000000000     
  0.73212551999999997       0.90191560000000004        0.0000000000000000     
   9.7784830000000003E-002  0.26957329000000002        0.0000000000000000     
  0.26711221000000002        9.8671499999999995E-002   0.0000000000000000     
  0.90191560000000004       0.26787448000000003        0.0000000000000000     
  0.90118569000000004       0.73039821000000005        0.0000000000000000     
  0.73122947000000005        9.8017859999999998E-002   0.0000000000000000     
   9.8084400000000002E-002  0.73212551999999997        0.0000000000000000     
  0.26957329000000002       0.90221516999999996        0.0000000000000000     
  0.39283522999999998       0.25360379000000000        0.0000000000000000     
  0.74480864000000002       0.60495284999999999        0.0000000000000000     
  0.25505132000000003       0.60593640999999998        0.0000000000000000     
  0.52159297999999998       0.40671636000000000        0.0000000000000000     
  0.40768852000000000       0.47699891000000000        0.0000000000000000     
   9.1467049999999994E-002   9.1876959999999994E-002   0.0000000000000000     
  0.90842484999999995       0.90819225000000003        0.0000000000000000     
  0.90820104999999995        9.1566729999999999E-002   0.0000000000000000     
   9.1807449999999999E-002  0.90843574000000005        0.0000000000000000     
  0.27098960000000000       0.20527094000000001        0.0000000000000000     
  0.73457293999999995       0.79835387000000002        0.0000000000000000     
  0.79817773000000003       0.25713470999999999        0.0000000000000000     
  0.20747797000000001       0.72863946000000002        0.0000000000000000     
  0.20175195000000001       0.27583914999999998        0.0000000000000000     
  0.79603889000000005       0.72159035000000005        0.0000000000000000     
  0.71761666000000002       0.19748431999999999        0.0000000000000000     
  0.28462607000000001       0.80251899999999998        0.0000000000000000     
  0.69134598999999997       0.49261972999999998        0.0000000000000000     
  0.44720578999999999       0.58582935999999997        0.0000000000000000     
  0.24242269999999999       0.37228174000000003        0.0000000000000000     
  0.38265623999999998       0.93072131999999996        0.0000000000000000     
  0.60971754000000000       0.91988369000000003        0.0000000000000000     
   7.9163609999999995E-002  0.60979116000000000        0.0000000000000000     
  0.92010649000000000       0.61081183999999999        0.0000000000000000     
  0.61954008999999999        7.1530830000000004E-002   0.0000000000000000     
  0.91882012999999996       0.38917363999999999        0.0000000000000000     
  0.39086346000000000        8.0652249999999995E-002   0.0000000000000000     
   7.9183480000000001E-002  0.38966213000000000        0.0000000000000000     
  0.59114111999999996       0.49294315000000000        0.0000000000000000     
  0.63337980999999999       0.64485914000000000        0.0000000000000000     
  0.50012352000000004       0.29676539000000002        0.0000000000000000     
  0.82552601000000003       0.92753492000000004        0.0000000000000000     
  0.92774772999999999       0.82498556999999995        0.0000000000000000     
   7.1970870000000006E-002  0.17510291000000000        0.0000000000000000     
  0.17422821999999999        7.2635640000000001E-002   0.0000000000000000     
  0.82510813000000005        7.2134840000000006E-002   0.0000000000000000     
  0.92754665000000003       0.17446275999999999        0.0000000000000000     
  0.17501022999999999       0.92789951999999998        0.0000000000000000     
   7.2464680000000004E-002  0.82554053000000005        0.0000000000000000     
  0.30731587999999999       0.50885354999999999        0.0000000000000000     
  0.59033407999999998       0.22171178999999999        0.0000000000000000     
  0.40109191999999999       0.78725542000000004        0.0000000000000000     
  0.35420917000000002       0.63754104000000000        0.0000000000000000     
  0.15983976999999999       0.56665573000000002        0.0000000000000000     
  0.84108459999999996       0.56757886999999996        0.0000000000000000     
  0.83902096000000004       0.43344338999999998        0.0000000000000000     
  0.43230028999999998       0.16004268999999999        0.0000000000000000     
  0.57536027999999995       0.83041363999999995        0.0000000000000000     
  0.15771898000000001       0.42747892999999998        0.0000000000000000     
  0.34021692999999997       0.34221559000000001        0.0000000000000000     
  0.56002271999999997       0.57501117999999996        0.0000000000000000     
  0.65344329000000001       0.78147597999999996        0.0000000000000000     
   0.0000000000000000        0.0000000000000000        0.0000000000000000     
   1.0000000000000000        0.0000000000000000        0.0000000000000000     
   1.0000000000000000        1.0000000000000000        0.0000000000000000     
   0.0000000000000000        1.0000000000000000        0.0000000000000000     
  0.11111111000000000        0.0000000000000000        0.0000000000000000     
  0.22222222000000000        0.0000000000000000        0.0000000000000000     
  0.33333332999999998        0.0000000000000000        0.0000000000000000     
  0.44444444000000000        0.0000000000000000        0.0000000000000000     
  0.55555555999999995        0.0000000000000000        0.0000000000000000     
  0.66666667000000002        0.0000000000000000        0.0000000000000000     
  0.77777777999999997        0.0000000000000000        0.0000000000000000     
  0.88888889000000004        0.0000000000000000        0.0000000000000000     
   1.0000000000000000       0.11111111000000000        0.0000000000000000     
   1.0000000000000000       0.22222222000000000        0.0000000000000000     
   1.0000000000000000       0.33333332999999998        0.0000000000000000     
   1.0000000000000000       0.44444444000000000        0.0000000000000000     
   1.0000000000000000       0.55555555999999995        0.0000000000000000     
   1.0000000000000000       0.66666667000000002        0.0000000000000000     
   1.0000000000000000       0.77777777999999997        0.0000000000000000     
   1.0000000000000000       0.88888889000000004        0.0000000000000000     
  0.88888889000000004        1.0000000000000000        0.0000000000000000     
  0.77777777999999997        1.0000000000000000        0.0000000000000000     
  0.66666667000000002        1.0000000000000000        0.0000000000000000     
  0.55555555999999995        1.0000000000000000        0.0000000000000000     
  0.44444444000000000        1.0000000000000000        0.0000000000000000     
  0.33333332999999998        1.0000000000000000        0.0000000000000000     
  0.22222222000000000        1.0000000000000000        0.0000000000000000     
  0.11111111000000000        1.0000000000000000        0.0000000000000000     
   0.0000000000000000       0.11111111000000000        0.0000000000000000     
   0.0000000000000000       0.22222222000000000        0.0000000000000000     
[...]
 CELL_DATA         354
 SCALARS E float
 LOOKUP_TABLE default
    0.72859493759316373840E+00
    0.73162256342848719370E+00
    0.66660759528821666997E+00
    0.61050087284714493752E+00
    0.74520797495808555055E+00
    0.74398455594917323186E+00
    0.72695762651063910997E+00
    0.73969878182269677147E+00
    0.71756914462570542401E+00
    0.70455779902880599774E+00
    0.66435537548418743814E+00
    0.68494235775521572496E+00
    0.66129623718272589894E+00
    0.66329741149208620854E+00
    0.67318703619625208656E+00
    0.66666322682474854489E+00
    0.68618415224239692751E+00
    0.70818681894358814777E+00
    0.73514029617409049067E+00
    0.72297632665539779406E+00
    0.73329815403790765682E+00
    0.72973373154771492555E+00
    0.71563914613740975401E+00
    0.72346496291014461555E+00
    0.70997839963388453821E+00
    0.71519499342660375341E+00
    0.72704675497733051159E+00
    0.72237459321906105636E+00
    0.73004602259775852602E+00
    0.73753388743133907468E+00
    0.73816614861445872808E+00
    0.74015023562556614412E+00
    0.72988782718485967216E+00
    0.72202894028588959774E+00
    0.69550200277227924861E+00
    0.70895658061975586062E+00
    0.68055538432793571957E+00
    0.68758218616388411260E+00
    0.70267887894443592511E+00
    0.69498764412320956918E+00
    0.70583511859741820960E+00
    0.70784438943081362527E+00
    0.70942628720277334242E+00
    0.70920459594229356970E+00
    0.70753205941292196535E+00
    0.70023073442560757051E+00
    0.68720304363137252324E+00
    0.69266785947948683599E+00
    0.67616681470337358650E+00
    0.66123447586420058819E+00
    0.63324380053984674621E+00
    0.64635782885242187845E+00
    0.73424041381171845089E+00
    0.73647176917768797377E+00
    0.73632276230419091423E+00
    0.73649802016944976302E+00
    0.73397213667015714922E+00
    0.73492389689809234365E+00
    0.73458742323695191967E+00
    0.73584569115657871841E+00
    0.73003539927902427742E+00
    0.72583620142305149692E+00
    0.70726984607662046756E+00
    0.71795578799322479213E+00
    0.69249580038133207172E+00
    0.67589939986156322149E+00
    0.64003267009727671244E+00
    0.65707527510243335378E+00
    0.62760214311888062877E+00
    0.66541310713119117271E+00
    0.69383402487610768006E+00
    0.64634072510716888971E+00
    0.68300476683939248534E+00
    0.66696146498469488506E+00
    0.69998793947137105675E+00
    0.71998698499424707009E+00
    0.71561216059357946051E+00
    0.68780884009360254705E+00
    0.73816683863973675539E+00
    0.72818057968705662830E+00
    0.74775267461151917470E+00
    0.74276006698272412088E+00
    0.73340216441525574176E+00
    0.73966986704845083533E+00
    0.64285224368534787942E+00
    0.61515335680688143505E+00
    0.64140041565976535498E+00
    0.62447485098594857078E+00
    0.63662418048288937911E+00
    0.60798674769111160643E+00
    0.61799798514236092828E+00
    0.75298718952627075041E+00
    0.75096652604443969725E+00
    0.74865868089124554263E+00
    0.74664729254968165151E+00
    0.75006866820412410046E+00
    0.75232168226023110602E+00
    0.71871092365441324734E+00
    0.67143220618590404580E+00
    0.70646648559836844328E+00
    0.68546693762565391594E+00
    0.70830975921097560910E+00
    0.70056828708450125109E+00
    0.63250247570446016532E+00
    0.63158264400062280597E+00
    0.59389420725771624454E+00
    0.59098026532820813195E+00
    0.62597912336402949940E+00
    0.74114767404724635202E+00
    0.74368393368113872022E+00
    0.75188586757837738705E+00
    0.74467344610442176567E+00
    0.75156445174049002489E+00
    0.74784034503491159107E+00
    0.72663964604324349228E+00
    0.74780923980079549995E+00
    0.74277841510852371520E+00
    0.72714356150438130832E+00
    0.73516314400162330323E+00
    0.73891945306364059665E+00
    0.73780565477300341648E+00
    0.73558725541115577151E+00
    0.74282098124299222874E+00
    0.72264771365935298597E+00
    0.74933566476318436145E+00
    0.74949341405289238160E+00
    0.72102774615270548431E+00
    0.73050620488560302768E+00
    0.74323058260490226790E+00
    0.73411251596546689413E+00
    0.74530022162003972674E+00
    0.73517808358422853665E+00
    0.74145000251373860412E+00
    0.74122032261315273782E+00
    0.73920573043499371302E+00
    0.70185521420917773572E+00
    0.68163703981287138145E+00
    0.71392868340119497450E+00
    0.68566114289499568990E+00
    0.67123184162476479120E+00
    0.69584957366978072990E+00
    0.70316229803805929688E+00
    0.71741787602641193811E+00
    0.71110492800403313218E+00
    0.68547939315538508609E+00
    0.73412183239782957678E+00
    0.73142796776313334650E+00
    0.69071216534190638114E+00
    0.69541225582820820339E+00
    0.66234474016333855229E+00
    0.63260292046981325687E+00
    0.62367289593170704975E+00
    0.65425895197557015770E+00
    0.61275047437010554674E+00
    0.64812688535373208509E+00
    0.71440400480976218311E+00
    0.67805461865779337316E+00
    0.66257594617256732050E+00
    0.71331044210082206192E+00
    0.69259909096690086550E+00
    0.74391406275875149312E+00
    0.69170924615365070309E+00
    0.70927986554570487954E+00
    0.72168509851271567257E+00
    0.73225116198403195078E+00
    0.74702978689426879910E+00
    0.75063009049063855738E+00
    0.74818029982074629736E+00
    0.74604588424764506360E+00
    0.74863128753582897090E+00
    0.72096960023675271678E+00
    0.66858179787736027322E+00
    0.70117791184906197444E+00
    0.70443357615920332293E+00
    0.66895021099096030337E+00
    0.75316612567695684355E+00
    0.73663307274238698508E+00
    0.72880656031321611188E+00
    0.75503282170674346219E+00
    0.74320243436273281112E+00
    0.65542077779985663533E+00
    0.70291241502714552070E+00
    0.66924006319216744476E+00
    0.71003300871268693051E+00
    0.68521493750947448653E+00
    0.75526522664151873876E+00
    0.73128201716396445953E+00
    0.74551204559773576186E+00
    0.75260085718286151568E+00
    0.73520366959367910997E+00
    0.63236496672116437878E+00
    0.66319794487107497361E+00
    0.62531301325444943462E+00
    0.64465233756127193754E+00
    0.61553496576098409854E+00
    0.74387739069570912864E+00
    0.74409736231212586510E+00
    0.74366812470936172197E+00
    0.74944012103091339760E+00
    0.74698752403317514315E+00
    0.73220439829955574762E+00
    0.73102195413820636460E+00
    0.73661270873595374731E+00
    0.72665741941808148496E+00
    0.74047470887802191442E+00
    0.61559511348778850337E+00
    0.61793757857877118500E+00
    0.60917640117340854378E+00
    0.63425486591338753328E+00
    0.62192239611885535844E+00
    0.73616577709797026419E+00
    0.73397969150224373625E+00
    0.71671301770513173857E+00
    0.72481965952372429118E+00
    0.71139122865817161490E+00
    0.67880014853516801310E+00
    0.71723521569756398808E+00
    0.70837303512464733224E+00
    0.68717804571397023139E+00
    0.61990648283201355007E+00
    0.63791609716280217590E+00
    0.65351905687174427495E+00
    0.72603051187512512854E+00
    0.74716468309719508145E+00
    0.74042810288949212350E+00
    0.72080461444948706884E+00
    0.73659125162341998472E+00
    0.74931263278703885700E+00
    0.74855067307076794680E+00
    0.74670224478126234757E+00
    0.75275967613576622028E+00
    0.74921784791702228379E+00
    0.75558912678861955836E+00
    0.74287680036683134688E+00
    0.73189833714976781920E+00
    0.73062934632050025030E+00
    0.72676173430149937360E+00
    0.64358062582625685799E+00
    0.68080755095727396586E+00
    0.63600035376831864919E+00
    0.65872999434700352239E+00
    0.73387380310938132855E+00
    0.74747691136856930783E+00
    0.74235918206596740454E+00
    0.65262512717877807500E+00
    0.66633830240782621068E+00
    0.74584954343103848640E+00
    0.73645665740736565574E+00
    0.71812560265678426763E+00
    0.74509807897553104183E+00
    0.75263913016205441497E+00
    0.74395979618219798546E+00
    0.72621314813574522340E+00
    0.72440023658661523154E+00
    0.73292797103466444941E+00
    0.69789563654303210516E+00
    0.71772990020403737432E+00
    0.71183349422072594859E+00
    0.75248991427513256536E+00
    0.75506726932479761860E+00
    0.73311336854546726993E+00
    0.66418392177123941611E+00
    0.68054673809983912136E+00
    0.68860438285574665507E+00
    0.73767116955078360085E+00
    0.73716508483306264488E+00
    0.69964049341443290686E+00
    0.72965534683471111599E+00
    0.71811834633105720016E+00
    0.68978847663863729345E+00
    0.67648127746240938052E+00
    0.63005757634407655310E+00
    0.64373652308264173172E+00
    0.64948506111353254688E+00
    0.73347325535411056485E+00
    0.70250928941052770416E+00
    0.72337144882671267077E+00
    0.71868959605437654492E+00
    0.74437400701165645778E+00
    0.74582061575721247948E+00
    0.74793811245972374735E+00
    0.74197229368339390199E+00
    0.64310105150752283620E+00
    0.61528929533047038714E+00
    0.61308554421709260396E+00
    0.69131265946740727557E+00
    0.69260376218795705050E+00
    0.74767398030757803440E+00
    0.74849170738851933393E+00
    0.70950895888226128694E+00
    0.71877316166311289169E+00
    0.72559082900680049733E+00
    0.73009903587733504526E+00
    0.66908535368609778349E+00
    0.67377334333037353087E+00
    0.72760874110588735775E+00
    0.75040837660812365062E+00
    0.75160411063346188598E+00
    0.64927806215631544973E+00
    0.74446010393685990714E+00
    0.72505928875427005931E+00
    0.59085926686219791826E+00
    0.74156405807528313900E+00
    0.64902901914200328282E+00
    0.72169352148233967270E+00
    0.70307801064018826676E+00
    0.72468988321579042022E+00
    0.70443022953878153825E+00
    0.74663384932028464824E+00
    0.74967913851510958878E+00
    0.74314601811260228015E+00
    0.71774129755640658779E+00
    0.68339575946476149859E+00
    0.75370793452361928288E+00
    0.66984648931649171111E+00
    0.71394465434727716335E+00
    0.60713532890126120645E+00
    0.74898462097468643250E+00
    0.73148462350081855377E+00
    0.71843740851840331985E+00
    0.73731859875126626314E+00
    0.73340629098837795130E+00
    0.66371961503113929837E+00
    0.64796180972896233463E+00
    0.59319980227868318590E+00
    0.60000934970566521809E+00
    0.74019534451747803772E+00
    0.72302211224719814542E+00
    0.70047763488066139281E+00
    0.67741831358854087686E+00
    0.67220484327565954707E+00
    0.68704327590002334247E+00
    0.71904346753083159260E+00
    0.72700366677255134906E+00
    0.71868016759220709755E+00
    0.72166729522692718568E+00
    0.72934434323044095017E+00
    0.73445956588843741564E+00
    0.72663289359120297739E+00
    0.70550367330547858469E+00
    0.67190818378072503236E+00
    0.68538817553278019723E+00
    0.69105046845976325631E+00
    0.68958718671221130858E+00
    0.67943220027219619617E+00
    0.66113042480877370899E+00
    0.63285651036237078326E+00
    0.72642807999701652921E+00
    0.72743232460422813102E+00
    0.72644820355719641469E+00
    0.72160396344878441344E+00
    0.70886201142569971179E+00
    0.68437543396077293867E+00
    0.64936138595312598021E+00
