# vtk DataFile Version 3.0
LAPLACIEN  2D
ASCII
DATASET UNSTRUCTURED_GRID
 POINTS         391  float
  0.50371505999999999       0.50367786999999997        0.0000000000000000     
  0.29013556000000001       0.29014535000000002        0.0000000000000000     
  0.70165584999999997       0.71206597999999999        0.0000000000000000     
  0.70304188999999995       0.30176619999999998        0.0000000000000000     
  0.30920671999999999       0.71149227999999998        0.0000000000000000     
  0.79044983999999996       0.49884783999999999        0.0000000000000000     
  0.49102621000000002       0.20968644000000000        0.0000000000000000     
  0.49912957000000002       0.77208717000000004        0.0000000000000000     
  0.21724072999999999       0.48989389000000000        0.0000000000000000     
  0.83255933999999998       0.83046598000000005        0.0000000000000000     
  0.16646774000000000       0.17015694000000001        0.0000000000000000     
  0.83054514999999995       0.16736480000000001        0.0000000000000000     
  0.16953130999999999       0.83265739000000005        0.0000000000000000     
  0.42166445000000002       0.36345201999999999        0.0000000000000000     
  0.64462200999999997       0.56347807999999999        0.0000000000000000     
  0.35324633999999999       0.56311191000000005        0.0000000000000000     
  0.65456411000000003       0.84856860999999995        0.0000000000000000     
  0.35141477999999998       0.15563974000000000        0.0000000000000000     
  0.15290967000000000       0.35206625000000003        0.0000000000000000     
  0.82942241000000005       0.34936866000000000        0.0000000000000000     
  0.84390527000000004       0.64441694999999999        0.0000000000000000     
  0.63699174999999997       0.14284276000000001        0.0000000000000000     
  0.15620682999999999       0.64648446999999998        0.0000000000000000     
  0.36426062999999997       0.85756310999999996        0.0000000000000000     
  0.63489340999999999       0.40519052000000000        0.0000000000000000     
  0.52518872999999999       0.65957078000000002        0.0000000000000000     
  0.32158959999999998       0.42298103999999997        0.0000000000000000     
  0.58861710000000000       0.31711036999999997        0.0000000000000000     
  0.42078418000000001       0.69497151999999995        0.0000000000000000     
  0.48608786999999998       0.89334152000000000        0.0000000000000000     
   9.7084320000000002E-002  0.50000000000000000        0.0000000000000000     
  0.90291568000000000       0.50000000000000000        0.0000000000000000     
  0.51392453000000005       0.10668648999999999        0.0000000000000000     
  0.59792566999999996       0.73122754000000001        0.0000000000000000     
  0.74510058999999995       0.41124730999999998        0.0000000000000000     
  0.73212551999999997       0.90191560000000004        0.0000000000000000     
   9.7784830000000003E-002  0.26957329000000002        0.0000000000000000     
  0.26711221000000002        9.8671499999999995E-002   0.0000000000000000     
  0.90191560000000004       0.26787448000000003        0.0000000000000000     
  0.90118569000000004       0.73039821000000005        0.0000000000000000     
  0.73122947000000005        9.8017859999999998E-002   0.0000000000000000     
   9.8084400000000002E-002  0.73212551999999997        0.0000000000000000     
  0.26957329000000002       0.90221516999999996        0.0000000000000000     
  0.39283522999999998       0.25360379000000000        0.0000000000000000     
  0.74480864000000002       0.60495284999999999        0.0000000000000000     
  0.25505132000000003       0.60593640999999998        0.0000000000000000     
  0.52159297999999998       0.40671636000000000        0.0000000000000000     
  0.40768852000000000       0.47699891000000000        0.0000000000000000     
   9.1467049999999994E-002   9.1876959999999994E-002   0.0000000000000000     
  0.90842484999999995       0.90819225000000003        0.0000000000000000     
  0.90820104999999995        9.1566729999999999E-002   0.0000000000000000     
   9.1807449999999999E-002  0.90843574000000005        0.0000000000000000     
  0.27098960000000000       0.20527094000000001        0.0000000000000000     
  0.73457293999999995       0.79835387000000002        0.0000000000000000     
  0.79817773000000003       0.25713470999999999        0.0000000000000000     
  0.20747797000000001       0.72863946000000002        0.0000000000000000     
  0.20175195000000001       0.27583914999999998        0.0000000000000000     
  0.79603889000000005       0.72159035000000005        0.0000000000000000     
  0.71761666000000002       0.19748431999999999        0.0000000000000000     
  0.28462607000000001       0.80251899999999998        0.0000000000000000     
  0.69134598999999997       0.49261972999999998        0.0000000000000000     
  0.44720578999999999       0.58582935999999997        0.0000000000000000     
  0.24242269999999999       0.37228174000000003        0.0000000000000000     
  0.38265623999999998       0.93072131999999996        0.0000000000000000     
  0.60971754000000000       0.91988369000000003        0.0000000000000000     
   7.9163609999999995E-002  0.60979116000000000        0.0000000000000000     
  0.92010649000000000       0.61081183999999999        0.0000000000000000     
  0.61954008999999999        7.1530830000000004E-002   0.0000000000000000     
  0.91882012999999996       0.38917363999999999        0.0000000000000000     
  0.39086346000000000        8.0652249999999995E-002   0.0000000000000000     
   7.9183480000000001E-002  0.38966213000000000        0.0000000000000000     
  0.59114111999999996       0.49294315000000000        0.0000000000000000     
  0.63337980999999999       0.64485914000000000        0.0000000000000000     
  0.50012352000000004       0.29676539000000002        0.0000000000000000     
  0.82552601000000003       0.92753492000000004        0.0000000000000000     
  0.92774772999999999       0.82498556999999995        0.0000000000000000     
   7.1970870000000006E-002  0.17510291000000000        0.0000000000000000     
  0.17422821999999999        7.2635640000000001E-002   0.0000000000000000     
  0.82510813000000005        7.2134840000000006E-002   0.0000000000000000     
  0.92754665000000003       0.17446275999999999        0.0000000000000000     
  0.17501022999999999       0.92789951999999998        0.0000000000000000     
   7.2464680000000004E-002  0.82554053000000005        0.0000000000000000     
  0.30731587999999999       0.50885354999999999        0.0000000000000000     
  0.59033407999999998       0.22171178999999999        0.0000000000000000     
  0.40109191999999999       0.78725542000000004        0.0000000000000000     
  0.35420917000000002       0.63754104000000000        0.0000000000000000     
  0.15983976999999999       0.56665573000000002        0.0000000000000000     
  0.84108459999999996       0.56757886999999996        0.0000000000000000     
  0.83902096000000004       0.43344338999999998        0.0000000000000000     
  0.43230028999999998       0.16004268999999999        0.0000000000000000     
  0.57536027999999995       0.83041363999999995        0.0000000000000000     
  0.15771898000000001       0.42747892999999998        0.0000000000000000     
  0.34021692999999997       0.34221559000000001        0.0000000000000000     
  0.56002271999999997       0.57501117999999996        0.0000000000000000     
  0.65344329000000001       0.78147597999999996        0.0000000000000000     
   0.0000000000000000        0.0000000000000000        0.0000000000000000     
   1.0000000000000000        0.0000000000000000        0.0000000000000000     
   1.0000000000000000        1.0000000000000000        0.0000000000000000     
   0.0000000000000000        1.0000000000000000        0.0000000000000000     
  0.11111111000000000        0.0000000000000000        0.0000000000000000     
  0.22222222000000000        0.0000000000000000        0.0000000000000000     
  0.33333332999999998        0.0000000000000000        0.0000000000000000     
  0.44444444000000000        0.0000000000000000        0.0000000000000000     
  0.55555555999999995        0.0000000000000000        0.0000000000000000     
  0.66666667000000002        0.0000000000000000        0.0000000000000000     
  0.77777777999999997        0.0000000000000000        0.0000000000000000     
  0.88888889000000004        0.0000000000000000        0.0000000000000000     
   1.0000000000000000       0.11111111000000000        0.0000000000000000     
   1.0000000000000000       0.22222222000000000        0.0000000000000000     
   1.0000000000000000       0.33333332999999998        0.0000000000000000     
   1.0000000000000000       0.44444444000000000        0.0000000000000000     
   1.0000000000000000       0.55555555999999995        0.0000000000000000     
   1.0000000000000000       0.66666667000000002        0.0000000000000000     
   1.0000000000000000       0.77777777999999997        0.0000000000000000     
   1.0000000000000000       0.88888889000000004        0.0000000000000000     
  0.88888889000000004        1.0000000000000000        0.0000000000000000     
  0.77777777999999997        1.0000000000000000        0.0000000000000000     
  0.66666667000000002        1.0000000000000000        0.0000000000000000     
  0.55555555999999995        1.0000000000000000        0.0000000000000000     
  0.44444444000000000        1.0000000000000000        0.0000000000000000     
  0.33333332999999998        1.0000000000000000        0.0000000000000000     
  0.22222222000000000        1.0000000000000000        0.0000000000000000     
  0.11111111000000000        1.0000000000000000        0.0000000000000000     
   0.0000000000000000       0.11111111000000000        0.0000000000000000     
   0.0000000000000000       0.22222222000000000        0.0000000000000000     
[...]
 CELL_DATA         354
 SCALARS E float
 LOOKUP_TABLE default
    0.72281659878543602638E+00
    0.71620840484457115593E+00
    0.66327722181242521060E+00
    0.60983598777379599554E+00
    0.73324833242019271662E+00
    0.73376891222499640577E+00
    0.70955368951141473133E+00
    0.72231944625802402271E+00
    0.71278951550730051956E+00
    0.70289548957958880582E+00
    0.66895074538781462703E+00
    0.68659353464956118795E+00
    0.66286317327875654559E+00
    0.66681775756069372463E+00
    0.67549126176506879560E+00
    0.66958420499067838882E+00
    0.68583282552606883442E+00
    0.69993790967342561782E+00
    0.72800750168205874413E+00
    0.72239744087011992235E+00
    0.72392898554792362020E+00
    0.71563711151942654975E+00
    0.71349208192078694690E+00
    0.71342635047389990621E+00
    0.70950449535730908401E+00
    0.70721487834502794190E+00
    0.72252112611570606937E+00
    0.71785266005752568219E+00
    0.70795190122620743622E+00
    0.72443744888513894598E+00
    0.72907074373903002495E+00
    0.73114646211854950053E+00
    0.72425442123155314711E+00
    0.71488849679870059006E+00
    0.68547532502593033765E+00
    0.69980878533187118595E+00
    0.67524382643088609601E+00
    0.68122866871598075633E+00
    0.69843399700679464903E+00
    0.69016804684453103569E+00
    0.70185334405328014817E+00
    0.70308794825598064371E+00
    0.70587694966355130077E+00
    0.70465608219539410673E+00
    0.70404443495840274281E+00
    0.69645668554890460822E+00
    0.68347779558631660546E+00
    0.68849293289352098135E+00
    0.67298317277803898495E+00
    0.65773381235158245861E+00
    0.62859062483582839320E+00
    0.64080440792511517145E+00
    0.72744508840292820828E+00
    0.72914595106710800021E+00
    0.73152844333319966275E+00
    0.73072110099154319318E+00
    0.72931927488744885402E+00
    0.72942613135876455122E+00
    0.72801683901290559220E+00
    0.72924649945451069932E+00
    0.72437218222748145369E+00
    0.71958221009242884225E+00
    0.70167185688123911991E+00
    0.71111243352646802407E+00
    0.68845140145308048041E+00
    0.67121200577775919083E+00
    0.63288110713097189830E+00
    0.65058660842753268660E+00
    0.62150038631424409097E+00
    0.65371060341569187102E+00
    0.67321415200624079578E+00
    0.63741326822957933285E+00
    0.66401043158717532044E+00
    0.66185263453370557496E+00
    0.69034207461130314698E+00
    0.70405246709238766822E+00
    0.69778799306914351952E+00
    0.67490047382454643188E+00
    0.71710218026286709492E+00
    0.71951547114480518541E+00
    0.73267334031672304295E+00
    0.72380330369152878767E+00
    0.72710991721983886382E+00
    0.71919712030573612616E+00
    0.62949443546373617941E+00
    0.57593928493380963651E+00
    0.50430511155793955602E+00
    0.62097248584254360892E+00
    0.62145256190799458285E+00
    0.61309100064453903034E+00
    0.55124265153063156664E+00
    0.72918205754690190723E+00
    0.72485314020438873506E+00
    0.73317140316803397493E+00
    0.73217697872173204132E+00
    0.73176998285910199726E+00
    0.72249676877328883329E+00
    0.70523341391034988224E+00
    0.66118675527990777852E+00
    0.69443772589386898453E+00
    0.66965765238124519421E+00
    0.70245003524105054105E+00
    0.68641289045819497971E+00
    0.61205694143179745215E+00
    0.60765329181810467940E+00
    0.56737090956645985784E+00
    0.56973305419032505004E+00
    0.61474758635897763792E+00
    0.71528746150686506322E+00
    0.72374333178563332591E+00
    0.73499918419822329874E+00
    0.72290762328496693812E+00
    0.73265902020422590812E+00
    0.73139813170462386616E+00
    0.70957961479787845516E+00
    0.72923146240954561659E+00
    0.72487772110445392038E+00
    0.71811778305221407592E+00
    0.73044427289259805658E+00
    0.71234516195343222655E+00
    0.73129308144906612910E+00
    0.72221262869113556082E+00
    0.72933138547607412328E+00
    0.71169699520840967732E+00
    0.73235824497128021449E+00
    0.73325125230284826650E+00
    0.71222481451356944859E+00
    0.72023971504133910138E+00
    0.72121179975289395614E+00
    0.72141553548895687165E+00
    0.73080768499946124894E+00
    0.73399841896927209284E+00
    0.72658171472760502141E+00
    0.72795509359385679460E+00
    0.71939870551912821206E+00
    0.69026068419615249638E+00
    0.67208043792558702645E+00
    0.70320501729112583345E+00
    0.66602718740961919242E+00
    0.65219308841355172479E+00
    0.69175247192846756050E+00
    0.70121954243848605426E+00
    0.70607296064393776369E+00
    0.70050588890157694522E+00
    0.67651265728926679444E+00
    0.71838253469949497898E+00
    0.71637080178204537440E+00
    0.68339667843510498724E+00
    0.68769282710496004718E+00
    0.65233523591566489053E+00
    0.61906714450753907997E+00
    0.60960369365485223003E+00
    0.63746068047382720145E+00
    0.59852574878678344028E+00
    0.64298069087140496958E+00
    0.69394395236008454830E+00
    0.66607819546214963591E+00
    0.65459834303425734614E+00
    0.69657345249031910051E+00
    0.67804986610356587917E+00
    0.72715217631628337180E+00
    0.68694338111989539097E+00
    0.69745060082282894776E+00
    0.70451284279979642378E+00
    0.72362302481667717391E+00
    0.72830079206008491166E+00
    0.73467533992435440915E+00
    0.72937269986165997881E+00
    0.73194085637786199250E+00
    0.73380480966553829347E+00
    0.70107315541868464592E+00
    0.65575800972687481316E+00
    0.68772656673202592348E+00
    0.68449920997861979366E+00
    0.65842427562949223940E+00
    0.72919317495820201724E+00
    0.72519515716809390682E+00
    0.71533046031496738681E+00
    0.73317565004040341492E+00
    0.71871545648268819750E+00
    0.64860292935118302182E+00
    0.68662789844112359638E+00
    0.65837110646002716674E+00
    0.69336316986960111475E+00
    0.67864253538142427224E+00
    0.73682655583546252664E+00
    0.72077372230658087737E+00
    0.72214678387993069819E+00
    0.72844591511876244372E+00
    0.72421769438784588946E+00
    0.62111067720539203663E+00
    0.64006429546422838328E+00
    0.61299450301871016844E+00
    0.63759250897174302164E+00
    0.59256616907174253228E+00
    0.72644358183437252041E+00
    0.73276676163630616312E+00
    0.73036740349650608461E+00
    0.73196001976203206585E+00
    0.73467284888139661181E+00
    0.72131752947487748351E+00
    0.71549739288184632802E+00
    0.72533996116101606688E+00
    0.71537150169797580901E+00
    0.72737804205040856864E+00
    0.52760245805376115857E+00
    0.61921247032976267644E+00
    0.57846745747239958213E+00
    0.61994167452167769916E+00
    0.61756089921290890921E+00
    0.72160102721315366736E+00
    0.72107753952451947299E+00
    0.70901339688607856182E+00
    0.71486454154245016035E+00
    0.69824486263466356561E+00
    0.67082024453279176512E+00
    0.69672190245910392559E+00
    0.69699175649448985581E+00
    0.67346162151880750724E+00
    0.51724996313495297251E+00
    0.50688234961699007997E+00
    0.49742842307905599242E+00
    0.72319700997223612671E+00
    0.72687697711118470778E+00
    0.73023637456274237412E+00
    0.71346204946500446642E+00
    0.72090590242207641669E+00
    0.73152159147854023402E+00
    0.73075390577787879831E+00
    0.73189384094973131134E+00
    0.73448925033998624379E+00
    0.73236295344737922797E+00
    0.73408952728237197860E+00
    0.72650453971077677551E+00
    0.72382457509742537116E+00
    0.72441907786312853545E+00
    0.70557763381618965326E+00
    0.64706608844382129675E+00
    0.66266923912943398456E+00
    0.60335226101092254147E+00
    0.63740388825142768603E+00
    0.72729367049467996686E+00
    0.73285726744274726219E+00
    0.72110918709453442066E+00
    0.64065687734613674387E+00
    0.66309740144482987034E+00
    0.72891416445432843929E+00
    0.71922842852529833557E+00
    0.70877578092320780989E+00
    0.71667811443265616589E+00
    0.73412817695834242659E+00
    0.72989124621865864029E+00
    0.71823027818896867380E+00
    0.70586545797312727490E+00
    0.70598620497192376977E+00
    0.67773516388444010605E+00
    0.70610950873980993237E+00
    0.71048552313439405914E+00
    0.73390764036349165345E+00
    0.73656418669012935219E+00
    0.72421304792626539637E+00
    0.64376472242192317452E+00
    0.65966797452295267146E+00
    0.68483917146406469989E+00
    0.72191202599116666150E+00
    0.72016287093383313245E+00
    0.69213569994166124211E+00
    0.71530072880280881620E+00
    0.70346578617504307296E+00
    0.68228110774656836046E+00
    0.66716514559440232013E+00
    0.59714966048350759387E+00
    0.63353269656582489322E+00
    0.64744399071506841814E+00
    0.70750557382920564731E+00
    0.68235361469639399523E+00
    0.71431190978791625490E+00
    0.71837337206327678274E+00
    0.73105358645798712569E+00
    0.73128130235621957578E+00
    0.72967827064661161529E+00
    0.71738044091030250815E+00
    0.62474420428108512482E+00
    0.61708797324921560445E+00
    0.55711841162846231779E+00
    0.67945272260841793610E+00
    0.68612116534098888110E+00
    0.73467979169309804988E+00
    0.73242018831515853794E+00
    0.69797167789479963584E+00
    0.70653846045639567830E+00
    0.71844387542959320392E+00
    0.71945541742507135297E+00
    0.65854151366338509188E+00
    0.66335331051326151819E+00
    0.71846809716497794795E+00
    0.73314367489733811567E+00
    0.73706692116706296058E+00
    0.63345933798679066040E+00
    0.72927902918589737613E+00
    0.71733693385853247726E+00
    0.60239282774142155485E+00
    0.73012836106273826253E+00
    0.63831793214179066709E+00
    0.71631297073735356040E+00
    0.68778702512541467495E+00
    0.71227750699892933284E+00
    0.68793767046337861437E+00
    0.72927185900819280207E+00
    0.73427310962479419576E+00
    0.72486496001961442381E+00
    0.70119129237229427254E+00
    0.66239264192544689003E+00
    0.73272708346266945956E+00
    0.65533791388742490547E+00
    0.69673463004118874053E+00
    0.53552025302687655817E+00
    0.73532438645148512357E+00
    0.72239832101011181020E+00
    0.71533001433508114353E+00
    0.72795558846082031312E+00
    0.72792215592245512745E+00
    0.65740771628746386135E+00
    0.64740796389334753780E+00
    0.59393546855733614365E+00
    0.59753075790398346712E+00
    0.73263199079432150818E+00
    0.71949376921470264978E+00
    0.70321656113497288398E+00
    0.68549543743507324045E+00
    0.68241808255670333150E+00
    0.69450296058163285551E+00
    0.71698308306609626062E+00
    0.71956106421586252253E+00
    0.72047991556125468016E+00
    0.71596025593220113947E+00
    0.72077426060823257536E+00
    0.73178053586135505260E+00
    0.72245358814471694053E+00
    0.69860631826832231273E+00
    0.67026772906069242985E+00
    0.68521402529480823773E+00
    0.69088859610129194078E+00
    0.68973966676109710328E+00
    0.67920056812421414350E+00
    0.66150053229309369041E+00
    0.63215410332162202955E+00
    0.72345073800041037604E+00
    0.72619946854747186027E+00
    0.72517820349603001606E+00
    0.71955248403237992427E+00
    0.70649286581254178152E+00
    0.68280289532908855499E+00
    0.64639135876091802224E+00
