# vtk DataFile Version 3.0
LAPLACIEN  2D
ASCII
DATASET UNSTRUCTURED_GRID
 POINTS         391  float
  0.50371505999999999       0.50367786999999997        0.0000000000000000     
  0.29013556000000001       0.29014535000000002        0.0000000000000000     
  0.70165584999999997       0.71206597999999999        0.0000000000000000     
  0.70304188999999995       0.30176619999999998        0.0000000000000000     
  0.30920671999999999       0.71149227999999998        0.0000000000000000     
  0.79044983999999996       0.49884783999999999        0.0000000000000000     
  0.49102621000000002       0.20968644000000000        0.0000000000000000     
  0.49912957000000002       0.77208717000000004        0.0000000000000000     
  0.21724072999999999       0.48989389000000000        0.0000000000000000     
  0.83255933999999998       0.83046598000000005        0.0000000000000000     
  0.16646774000000000       0.17015694000000001        0.0000000000000000     
  0.83054514999999995       0.16736480000000001        0.0000000000000000     
  0.16953130999999999       0.83265739000000005        0.0000000000000000     
  0.42166445000000002       0.36345201999999999        0.0000000000000000     
  0.64462200999999997       0.56347807999999999        0.0000000000000000     
  0.35324633999999999       0.56311191000000005        0.0000000000000000     
  0.65456411000000003       0.84856860999999995        0.0000000000000000     
  0.35141477999999998       0.15563974000000000        0.0000000000000000     
  0.15290967000000000       0.35206625000000003        0.0000000000000000     
  0.82942241000000005       0.34936866000000000        0.0000000000000000     
  0.84390527000000004       0.64441694999999999        0.0000000000000000     
  0.63699174999999997       0.14284276000000001        0.0000000000000000     
  0.15620682999999999       0.64648446999999998        0.0000000000000000     
  0.36426062999999997       0.85756310999999996        0.0000000000000000     
  0.63489340999999999       0.40519052000000000        0.0000000000000000     
  0.52518872999999999       0.65957078000000002        0.0000000000000000     
  0.32158959999999998       0.42298103999999997        0.0000000000000000     
  0.58861710000000000       0.31711036999999997        0.0000000000000000     
  0.42078418000000001       0.69497151999999995        0.0000000000000000     
  0.48608786999999998       0.89334152000000000        0.0000000000000000     
   9.7084320000000002E-002  0.50000000000000000        0.0000000000000000     
  0.90291568000000000       0.50000000000000000        0.0000000000000000     
  0.51392453000000005       0.10668648999999999        0.0000000000000000     
  0.59792566999999996       0.73122754000000001        0.0000000000000000     
  0.74510058999999995       0.41124730999999998        0.0000000000000000     
  0.73212551999999997       0.90191560000000004        0.0000000000000000     
   9.7784830000000003E-002  0.26957329000000002        0.0000000000000000     
  0.26711221000000002        9.8671499999999995E-002   0.0000000000000000     
  0.90191560000000004       0.26787448000000003        0.0000000000000000     
  0.90118569000000004       0.73039821000000005        0.0000000000000000     
  0.73122947000000005        9.8017859999999998E-002   0.0000000000000000     
   9.8084400000000002E-002  0.73212551999999997        0.0000000000000000     
  0.26957329000000002       0.90221516999999996        0.0000000000000000     
  0.39283522999999998       0.25360379000000000        0.0000000000000000     
  0.74480864000000002       0.60495284999999999        0.0000000000000000     
  0.25505132000000003       0.60593640999999998        0.0000000000000000     
  0.52159297999999998       0.40671636000000000        0.0000000000000000     
  0.40768852000000000       0.47699891000000000        0.0000000000000000     
   9.1467049999999994E-002   9.1876959999999994E-002   0.0000000000000000     
  0.90842484999999995       0.90819225000000003        0.0000000000000000     
  0.90820104999999995        9.1566729999999999E-002   0.0000000000000000     
   9.1807449999999999E-002  0.90843574000000005        0.0000000000000000     
  0.27098960000000000       0.20527094000000001        0.0000000000000000     
  0.73457293999999995       0.79835387000000002        0.0000000000000000     
  0.79817773000000003       0.25713470999999999        0.0000000000000000     
  0.20747797000000001       0.72863946000000002        0.0000000000000000     
  0.20175195000000001       0.27583914999999998        0.0000000000000000     
  0.79603889000000005       0.72159035000000005        0.0000000000000000     
  0.71761666000000002       0.19748431999999999        0.0000000000000000     
  0.28462607000000001       0.80251899999999998        0.0000000000000000     
  0.69134598999999997       0.49261972999999998        0.0000000000000000     
  0.44720578999999999       0.58582935999999997        0.0000000000000000     
  0.24242269999999999       0.37228174000000003        0.0000000000000000     
  0.38265623999999998       0.93072131999999996        0.0000000000000000     
  0.60971754000000000       0.91988369000000003        0.0000000000000000     
   7.9163609999999995E-002  0.60979116000000000        0.0000000000000000     
  0.92010649000000000       0.61081183999999999        0.0000000000000000     
  0.61954008999999999        7.1530830000000004E-002   0.0000000000000000     
  0.91882012999999996       0.38917363999999999        0.0000000000000000     
  0.39086346000000000        8.0652249999999995E-002   0.0000000000000000     
   7.9183480000000001E-002  0.38966213000000000        0.0000000000000000     
  0.59114111999999996       0.49294315000000000        0.0000000000000000     
  0.63337980999999999       0.64485914000000000        0.0000000000000000     
  0.50012352000000004       0.29676539000000002        0.0000000000000000     
  0.82552601000000003       0.92753492000000004        0.0000000000000000     
  0.92774772999999999       0.82498556999999995        0.0000000000000000     
   7.1970870000000006E-002  0.17510291000000000        0.0000000000000000     
  0.17422821999999999        7.2635640000000001E-002   0.0000000000000000     
  0.82510813000000005        7.2134840000000006E-002   0.0000000000000000     
  0.92754665000000003       0.17446275999999999        0.0000000000000000     
  0.17501022999999999       0.92789951999999998        0.0000000000000000     
   7.2464680000000004E-002  0.82554053000000005        0.0000000000000000     
  0.30731587999999999       0.50885354999999999        0.0000000000000000     
  0.59033407999999998       0.22171178999999999        0.0000000000000000     
  0.40109191999999999       0.78725542000000004        0.0000000000000000     
  0.35420917000000002       0.63754104000000000        0.0000000000000000     
  0.15983976999999999       0.56665573000000002        0.0000000000000000     
  0.84108459999999996       0.56757886999999996        0.0000000000000000     
  0.83902096000000004       0.43344338999999998        0.0000000000000000     
  0.43230028999999998       0.16004268999999999        0.0000000000000000     
  0.57536027999999995       0.83041363999999995        0.0000000000000000     
  0.15771898000000001       0.42747892999999998        0.0000000000000000     
  0.34021692999999997       0.34221559000000001        0.0000000000000000     
  0.56002271999999997       0.57501117999999996        0.0000000000000000     
  0.65344329000000001       0.78147597999999996        0.0000000000000000     
   0.0000000000000000        0.0000000000000000        0.0000000000000000     
   1.0000000000000000        0.0000000000000000        0.0000000000000000     
   1.0000000000000000        1.0000000000000000        0.0000000000000000     
   0.0000000000000000        1.0000000000000000        0.0000000000000000     
  0.11111111000000000        0.0000000000000000        0.0000000000000000     
  0.22222222000000000        0.0000000000000000        0.0000000000000000     
  0.33333332999999998        0.0000000000000000        0.0000000000000000     
  0.44444444000000000        0.0000000000000000        0.0000000000000000     
  0.55555555999999995        0.0000000000000000        0.0000000000000000     
  0.66666667000000002        0.0000000000000000        0.0000000000000000     
  0.77777777999999997        0.0000000000000000        0.0000000000000000     
  0.88888889000000004        0.0000000000000000        0.0000000000000000     
   1.0000000000000000       0.11111111000000000        0.0000000000000000     
   1.0000000000000000       0.22222222000000000        0.0000000000000000     
   1.0000000000000000       0.33333332999999998        0.0000000000000000     
   1.0000000000000000       0.44444444000000000        0.0000000000000000     
   1.0000000000000000       0.55555555999999995        0.0000000000000000     
   1.0000000000000000       0.66666667000000002        0.0000000000000000     
   1.0000000000000000       0.77777777999999997        0.0000000000000000     
   1.0000000000000000       0.88888889000000004        0.0000000000000000     
  0.88888889000000004        1.0000000000000000        0.0000000000000000     
  0.77777777999999997        1.0000000000000000        0.0000000000000000     
  0.66666667000000002        1.0000000000000000        0.0000000000000000     
  0.55555555999999995        1.0000000000000000        0.0000000000000000     
  0.44444444000000000        1.0000000000000000        0.0000000000000000     
  0.33333332999999998        1.0000000000000000        0.0000000000000000     
  0.22222222000000000        1.0000000000000000        0.0000000000000000     
  0.11111111000000000        1.0000000000000000        0.0000000000000000     
   0.0000000000000000       0.11111111000000000        0.0000000000000000     
   0.0000000000000000       0.22222222000000000        0.0000000000000000     
[...]
 CELL_DATA         354
 SCALARS E float
 LOOKUP_TABLE default
    0.71919492314443567160E+00
    0.70506721077958256494E+00
    0.66073202570307509873E+00
    0.60821263763946908920E+00
    0.73006180356482119898E+00
    0.72918773455511631809E+00
    0.70022782727094390332E+00
    0.71001194348742435736E+00
    0.71070785934423374997E+00
    0.69912337243185773694E+00
    0.66748962391885269252E+00
    0.68408573570739972247E+00
    0.66057877486058380612E+00
    0.66447788616593317368E+00
    0.67319165199337516192E+00
    0.66784912634431203848E+00
    0.68279113292383308842E+00
    0.69492949719371976958E+00
    0.72728144508321646011E+00
    0.72191451581797427828E+00
    0.71966449124185516428E+00
    0.71195561082021319166E+00
    0.70935717453142976829E+00
    0.70476125284972157559E+00
    0.70464364608240004362E+00
    0.70093648022562426991E+00
    0.71812043461571650749E+00
    0.71621308512887793540E+00
    0.69298014161922316667E+00
    0.71414917396104882208E+00
    0.72447243084451196093E+00
    0.72643900699720009850E+00
    0.72065389326991680097E+00
    0.71170819259157769299E+00
    0.68263675091467956868E+00
    0.69679682019003374993E+00
    0.67267399190473420312E+00
    0.67841530241259340173E+00
    0.69540090264249077023E+00
    0.68734712881752835223E+00
    0.69825592034663719332E+00
    0.69959459125565659487E+00
    0.70231643490862083468E+00
    0.70125636676899316679E+00
    0.70088690686197963053E+00
    0.69352828768614205313E+00
    0.68038841024100915611E+00
    0.68530563434712798987E+00
    0.67026375522330350343E+00
    0.65549170759689912025E+00
    0.62651488833794299893E+00
    0.63827612568904157353E+00
    0.72387138753292590287E+00
    0.72564718905158853701E+00
    0.72780381986725617427E+00
    0.72704513916346891200E+00
    0.72483163534791517080E+00
    0.72509886326127215295E+00
    0.72397312494315246845E+00
    0.72524085730074783207E+00
    0.72044003156183600289E+00
    0.71588657987701187491E+00
    0.69810641686210228585E+00
    0.70748700846542322829E+00
    0.68552375615533334141E+00
    0.66878533975579146365E+00
    0.63023539804766892658E+00
    0.64807757952739286633E+00
    0.61960976519774191296E+00
    0.65214869171321021568E+00
    0.67302917273374840423E+00
    0.63615650281349056527E+00
    0.66446359135523058725E+00
    0.66205997327831489496E+00
    0.68963761437216930528E+00
    0.70127916016052560533E+00
    0.69587555378713317200E+00
    0.67462613853288388999E+00
    0.71060126328519035432E+00
    0.71711148347411024506E+00
    0.72661730856463979666E+00
    0.71787450250041973110E+00
    0.73164725227020577236E+00
    0.70514201886319427537E+00
    0.62840117380774251910E+00
    0.57669569094464279146E+00
    0.48264941215036383237E+00
    0.62289878001996468182E+00
    0.61966295387279091145E+00
    0.62178986627947885335E+00
    0.54285072674232370815E+00
    0.72445385409858142900E+00
    0.71558984537191727693E+00
    0.72904014209445389127E+00
    0.72851409943062506169E+00
    0.72563129871207077137E+00
    0.71553751070017379554E+00
    0.70295655450957350574E+00
    0.66122256662319345288E+00
    0.69303090792322219471E+00
    0.66947294970956727767E+00
    0.69965120116804890849E+00
    0.68592618378777547861E+00
    0.61151495299162217378E+00
    0.60629123778974258752E+00
    0.57355498332079346557E+00
    0.57723330083810486801E+00
    0.61212079627121607217E+00
    0.71220229807578683268E+00
    0.71770285839182812460E+00
    0.73264457937627180950E+00
    0.71545253765742566898E+00
    0.72543930832650782570E+00
    0.72453318975527203349E+00
    0.70557842012064120318E+00
    0.72282491094340350912E+00
    0.72186053163466834537E+00
    0.71771721808068877912E+00
    0.73491310030701362255E+00
    0.69870850840687248606E+00
    0.73084727925325276843E+00
    0.71862795538749524304E+00
    0.72542030695030701448E+00
    0.70872656843904113799E+00
    0.72919270553591386541E+00
    0.72997400953056879036E+00
    0.70859401452400416765E+00
    0.71668001831230887522E+00
    0.71390166324419268573E+00
    0.72188048065856125213E+00
    0.72336400273528522753E+00
    0.73578719429197669832E+00
    0.72722141340460477732E+00
    0.71929379429680606606E+00
    0.71422955866824366922E+00
    0.68927061294518132684E+00
    0.67104530884372159960E+00
    0.70024076986785876997E+00
    0.66579023481402610507E+00
    0.65183550319818683860E+00
    0.68899198330127142675E+00
    0.69874594494526387489E+00
    0.70272770620562874377E+00
    0.69721941535433873405E+00
    0.67401387801759127250E+00
    0.71530401915076624597E+00
    0.71324749057583480827E+00
    0.68045138427083518007E+00
    0.68464403404372087270E+00
    0.65166695269668140078E+00
    0.61518952154943540300E+00
    0.61537098503156095752E+00
    0.63618039203842158269E+00
    0.60378645849083178998E+00
    0.64105070926675566945E+00
    0.69263975978142711121E+00
    0.66593656548293245212E+00
    0.65484784532218387465E+00
    0.69510016066042734639E+00
    0.67846948736236278865E+00
    0.72821848521962273537E+00
    0.68493547812342092662E+00
    0.69397049511332919991E+00
    0.69992889923328394097E+00
    0.72672147616545723636E+00
    0.72544203047426858433E+00
    0.73178808146006013580E+00
    0.72694940874667879349E+00
    0.72820732653287789660E+00
    0.73014135082442088720E+00
    0.69899579864725602807E+00
    0.65527928245337874191E+00
    0.68737724603403860257E+00
    0.68341110311691499746E+00
    0.65781071846879823894E+00
    0.72307299205962916044E+00
    0.72195011229206418335E+00
    0.71578920230315601358E+00
    0.72523792610475967813E+00
    0.71434454917137046870E+00
    0.64824648877972257388E+00
    0.68606665638104535887E+00
    0.65772258175942510672E+00
    0.69230128602125629023E+00
    0.67899350490515364420E+00
    0.73158667739436600286E+00
    0.71852740706482232103E+00
    0.71573175363918573044E+00
    0.72331694260859413781E+00
    0.72080744260910334376E+00
    0.61708314599594848993E+00
    0.63777381844772595976E+00
    0.60877589398287490496E+00
    0.63455745836695665041E+00
    0.58944479086874768115E+00
    0.72391892034068638928E+00
    0.72848919841245263207E+00
    0.72664993764957230837E+00
    0.72944134264118809519E+00
    0.73097655584657050820E+00
    0.71697927253454862839E+00
    0.71286599315512255703E+00
    0.72199913743300192515E+00
    0.71217319490474206845E+00
    0.72308184150265786272E+00
    0.52293433082584761529E+00
    0.62111487833619161147E+00
    0.57842586594503409003E+00
    0.61914334951554672593E+00
    0.61950455922263814035E+00
    0.72073998608296496737E+00
    0.71825237424787324869E+00
    0.70696085978775446979E+00
    0.71244968254862861556E+00
    0.69576442453230824547E+00
    0.66968750036608848397E+00
    0.69389260286879617112E+00
    0.69370863154425232988E+00
    0.67325648498301660094E+00
    0.50175284601333514090E+00
    0.48029219280993762364E+00
    0.46442548700615948754E+00
    0.72391754687547860136E+00
    0.71682413716555148930E+00
    0.73154154458207754086E+00
    0.71010803781025988446E+00
    0.71753726933856343262E+00
    0.72823743442584321084E+00
    0.72751854662692283515E+00
    0.72878069073060758321E+00
    0.73047043218110307983E+00
    0.72713378005437778739E+00
    0.72926357771575700539E+00
    0.72470601901704623238E+00
    0.72422748255986124644E+00
    0.72852096737705651641E+00
    0.70304029157681324769E+00
    0.64417724458107628038E+00
    0.66117924536714189898E+00
    0.60393373763376734242E+00
    0.63468725112495716356E+00
    0.73252378120333361267E+00
    0.72681933647586660641E+00
    0.70780595374602106595E+00
    0.63933001357397645226E+00
    0.66355662684495930748E+00
    0.72568629537360396231E+00
    0.71622850481876887407E+00
    0.70541028054037802075E+00
    0.71215364233160249885E+00
    0.72874132776918609800E+00
    0.72136343058071328294E+00
    0.71754123172837158684E+00
    0.70245215646222081141E+00
    0.69658486883439496573E+00
    0.67793199445103868861E+00
    0.70243970453678361565E+00
    0.70753176179554277958E+00
    0.72845767987370957375E+00
    0.73258569219578206777E+00
    0.72053848440742140902E+00
    0.64258305389349112957E+00
    0.65833607463716270480E+00
    0.68222910927105462342E+00
    0.71887815706824209627E+00
    0.71724930604243430921E+00
    0.68906714529818324788E+00
    0.71228909168107235050E+00
    0.70061077675636251882E+00
    0.67925665703620974334E+00
    0.66765999575312207082E+00
    0.59625990568073850007E+00
    0.63126357555616963158E+00
    0.64564115510767949857E+00
    0.70242454452308211721E+00
    0.68177280084133151661E+00
    0.71189925601701165014E+00
    0.71724082226402607887E+00
    0.72635703826988207155E+00
    0.73452930659460757834E+00
    0.72855577991889053369E+00
    0.70519697298246208916E+00
    0.62320337553713611722E+00
    0.61825254492194448019E+00
    0.55206029539887446766E+00
    0.67824371917658488051E+00
    0.68444091044234123267E+00
    0.73126217990879738284E+00
    0.72510383576397674510E+00
    0.69507054098448939339E+00
    0.70372658672188537210E+00
    0.71857689561561755021E+00
    0.72076327364233883088E+00
    0.65568510930819146054E+00
    0.66068878531474461990E+00
    0.71837211251761801112E+00
    0.72696277795181152293E+00
    0.73406231425576984329E+00
    0.63227185183181300321E+00
    0.72622914009718053663E+00
    0.71523968494406042762E+00
    0.61079051576468801343E+00
    0.72604386347661853396E+00
    0.63720921378984951566E+00
    0.71645286160030074996E+00
    0.68704736871050475777E+00
    0.71420992298235352891E+00
    0.68753773925428252056E+00
    0.72636891518317814320E+00
    0.73154297218324881857E+00
    0.72666391463232060666E+00
    0.69952867759952630511E+00
    0.66141968906524772898E+00
    0.72556648431676773470E+00
    0.65583945898784734574E+00
    0.69486220635431361625E+00
    0.52790972856527962342E+00
    0.73184892653389477246E+00
    0.71916752698706121194E+00
    0.71146995051506090046E+00
    0.72381621233141990590E+00
    0.71891740001417714367E+00
    0.65485540253447538372E+00
    0.64509080745354940856E+00
    0.59274343975601695433E+00
    0.59552340079758381286E+00
    0.72791450167767512980E+00
    0.71768740534258435027E+00
    0.69884546671388358963E+00
    0.68206943484976823022E+00
    0.67868984934630183226E+00
    0.69040030615642200562E+00
    0.71298727079051849032E+00
    0.71190756528670529057E+00
    0.71692236077409576822E+00
    0.71076861030741744774E+00
    0.71236747199180228129E+00
    0.72726435488870500023E+00
    0.71851530075436320644E+00
    0.69550231908557946792E+00
    0.66746565782155342639E+00
    0.68206037537828057005E+00
    0.68769646731225542169E+00
    0.68648631858109121495E+00
    0.67624519769498236954E+00
    0.65887088786446279531E+00
    0.63022680433846012260E+00
    0.71946542368207910823E+00
    0.72203483414636149273E+00
    0.72113534431984493978E+00
    0.71564091672659946308E+00
    0.70300968891793957916E+00
    0.67972489424416493442E+00
    0.64416001186240401388E+00
