# vtk DataFile Version 3.0
LAPLACIEN  2D
ASCII
DATASET UNSTRUCTURED_GRID
 POINTS         391  float
  0.50371505999999999       0.50367786999999997        0.0000000000000000     
  0.29013556000000001       0.29014535000000002        0.0000000000000000     
  0.70165584999999997       0.71206597999999999        0.0000000000000000     
  0.70304188999999995       0.30176619999999998        0.0000000000000000     
  0.30920671999999999       0.71149227999999998        0.0000000000000000     
  0.79044983999999996       0.49884783999999999        0.0000000000000000     
  0.49102621000000002       0.20968644000000000        0.0000000000000000     
  0.49912957000000002       0.77208717000000004        0.0000000000000000     
  0.21724072999999999       0.48989389000000000        0.0000000000000000     
  0.83255933999999998       0.83046598000000005        0.0000000000000000     
  0.16646774000000000       0.17015694000000001        0.0000000000000000     
  0.83054514999999995       0.16736480000000001        0.0000000000000000     
  0.16953130999999999       0.83265739000000005        0.0000000000000000     
  0.42166445000000002       0.36345201999999999        0.0000000000000000     
  0.64462200999999997       0.56347807999999999        0.0000000000000000     
  0.35324633999999999       0.56311191000000005        0.0000000000000000     
  0.65456411000000003       0.84856860999999995        0.0000000000000000     
  0.35141477999999998       0.15563974000000000        0.0000000000000000     
  0.15290967000000000       0.35206625000000003        0.0000000000000000     
  0.82942241000000005       0.34936866000000000        0.0000000000000000     
  0.84390527000000004       0.64441694999999999        0.0000000000000000     
  0.63699174999999997       0.14284276000000001        0.0000000000000000     
  0.15620682999999999       0.64648446999999998        0.0000000000000000     
  0.36426062999999997       0.85756310999999996        0.0000000000000000     
  0.63489340999999999       0.40519052000000000        0.0000000000000000     
  0.52518872999999999       0.65957078000000002        0.0000000000000000     
  0.32158959999999998       0.42298103999999997        0.0000000000000000     
  0.58861710000000000       0.31711036999999997        0.0000000000000000     
  0.42078418000000001       0.69497151999999995        0.0000000000000000     
  0.48608786999999998       0.89334152000000000        0.0000000000000000     
   9.7084320000000002E-002  0.50000000000000000        0.0000000000000000     
  0.90291568000000000       0.50000000000000000        0.0000000000000000     
  0.51392453000000005       0.10668648999999999        0.0000000000000000     
  0.59792566999999996       0.73122754000000001        0.0000000000000000     
  0.74510058999999995       0.41124730999999998        0.0000000000000000     
  0.73212551999999997       0.90191560000000004        0.0000000000000000     
   9.7784830000000003E-002  0.26957329000000002        0.0000000000000000     
  0.26711221000000002        9.8671499999999995E-002   0.0000000000000000     
  0.90191560000000004       0.26787448000000003        0.0000000000000000     
  0.90118569000000004       0.73039821000000005        0.0000000000000000     
  0.73122947000000005        9.8017859999999998E-002   0.0000000000000000     
   9.8084400000000002E-002  0.73212551999999997        0.0000000000000000     
  0.26957329000000002       0.90221516999999996        0.0000000000000000     
  0.39283522999999998       0.25360379000000000        0.0000000000000000     
  0.74480864000000002       0.60495284999999999        0.0000000000000000     
  0.25505132000000003       0.60593640999999998        0.0000000000000000     
  0.52159297999999998       0.40671636000000000        0.0000000000000000     
  0.40768852000000000       0.47699891000000000        0.0000000000000000     
   9.1467049999999994E-002   9.1876959999999994E-002   0.0000000000000000     
  0.90842484999999995       0.90819225000000003        0.0000000000000000     
  0.90820104999999995        9.1566729999999999E-002   0.0000000000000000     
   9.1807449999999999E-002  0.90843574000000005        0.0000000000000000     
  0.27098960000000000       0.20527094000000001        0.0000000000000000     
  0.73457293999999995       0.79835387000000002        0.0000000000000000     
  0.79817773000000003       0.25713470999999999        0.0000000000000000     
  0.20747797000000001       0.72863946000000002        0.0000000000000000     
  0.20175195000000001       0.27583914999999998        0.0000000000000000     
  0.79603889000000005       0.72159035000000005        0.0000000000000000     
  0.71761666000000002       0.19748431999999999        0.0000000000000000     
  0.28462607000000001       0.80251899999999998        0.0000000000000000     
  0.69134598999999997       0.49261972999999998        0.0000000000000000     
  0.44720578999999999       0.58582935999999997        0.0000000000000000     
  0.24242269999999999       0.37228174000000003        0.0000000000000000     
  0.38265623999999998       0.93072131999999996        0.0000000000000000     
  0.60971754000000000       0.91988369000000003        0.0000000000000000     
   7.9163609999999995E-002  0.60979116000000000        0.0000000000000000     
  0.92010649000000000       0.61081183999999999        0.0000000000000000     
  0.61954008999999999        7.1530830000000004E-002   0.0000000000000000     
  0.91882012999999996       0.38917363999999999        0.0000000000000000     
  0.39086346000000000        8.0652249999999995E-002   0.0000000000000000     
   7.9183480000000001E-002  0.38966213000000000        0.0000000000000000     
  0.59114111999999996       0.49294315000000000        0.0000000000000000     
  0.63337980999999999       0.64485914000000000        0.0000000000000000     
  0.50012352000000004       0.29676539000000002        0.0000000000000000     
  0.82552601000000003       0.92753492000000004        0.0000000000000000     
  0.92774772999999999       0.82498556999999995        0.0000000000000000     
   7.1970870000000006E-002  0.17510291000000000        0.0000000000000000     
  0.17422821999999999        7.2635640000000001E-002   0.0000000000000000     
  0.82510813000000005        7.2134840000000006E-002   0.0000000000000000     
  0.92754665000000003       0.17446275999999999        0.0000000000000000     
  0.17501022999999999       0.92789951999999998        0.0000000000000000     
   7.2464680000000004E-002  0.82554053000000005        0.0000000000000000     
  0.30731587999999999       0.50885354999999999        0.0000000000000000     
  0.59033407999999998       0.22171178999999999        0.0000000000000000     
  0.40109191999999999       0.78725542000000004        0.0000000000000000     
  0.35420917000000002       0.63754104000000000        0.0000000000000000     
  0.15983976999999999       0.56665573000000002        0.0000000000000000     
  0.84108459999999996       0.56757886999999996        0.0000000000000000     
  0.83902096000000004       0.43344338999999998        0.0000000000000000     
  0.43230028999999998       0.16004268999999999        0.0000000000000000     
  0.57536027999999995       0.83041363999999995        0.0000000000000000     
  0.15771898000000001       0.42747892999999998        0.0000000000000000     
  0.34021692999999997       0.34221559000000001        0.0000000000000000     
  0.56002271999999997       0.57501117999999996        0.0000000000000000     
  0.65344329000000001       0.78147597999999996        0.0000000000000000     
   0.0000000000000000        0.0000000000000000        0.0000000000000000     
   1.0000000000000000        0.0000000000000000        0.0000000000000000     
   1.0000000000000000        1.0000000000000000        0.0000000000000000     
   0.0000000000000000        1.0000000000000000        0.0000000000000000     
  0.11111111000000000        0.0000000000000000        0.0000000000000000     
  0.22222222000000000        0.0000000000000000        0.0000000000000000     
  0.33333332999999998        0.0000000000000000        0.0000000000000000     
  0.44444444000000000        0.0000000000000000        0.0000000000000000     
  0.55555555999999995        0.0000000000000000        0.0000000000000000     
  0.66666667000000002        0.0000000000000000        0.0000000000000000     
  0.77777777999999997        0.0000000000000000        0.0000000000000000     
  0.88888889000000004        0.0000000000000000        0.0000000000000000     
   1.0000000000000000       0.11111111000000000        0.0000000000000000     
   1.0000000000000000       0.22222222000000000        0.0000000000000000     
   1.0000000000000000       0.33333332999999998        0.0000000000000000     
   1.0000000000000000       0.44444444000000000        0.0000000000000000     
   1.0000000000000000       0.55555555999999995        0.0000000000000000     
   1.0000000000000000       0.66666667000000002        0.0000000000000000     
   1.0000000000000000       0.77777777999999997        0.0000000000000000     
   1.0000000000000000       0.88888889000000004        0.0000000000000000     
  0.88888889000000004        1.0000000000000000        0.0000000000000000     
  0.77777777999999997        1.0000000000000000        0.0000000000000000     
  0.66666667000000002        1.0000000000000000        0.0000000000000000     
  0.55555555999999995        1.0000000000000000        0.0000000000000000     
  0.44444444000000000        1.0000000000000000        0.0000000000000000     
  0.33333332999999998        1.0000000000000000        0.0000000000000000     
  0.22222222000000000        1.0000000000000000        0.0000000000000000     
  0.11111111000000000        1.0000000000000000        0.0000000000000000     
   0.0000000000000000       0.11111111000000000        0.0000000000000000     
   0.0000000000000000       0.22222222000000000        0.0000000000000000     
[...]
 CELL_DATA         354
 SCALARS E float
 LOOKUP_TABLE default
    0.72399524036847173747E+00
    0.72523641841211949899E+00
    0.66286824155524404212E+00
    0.60701243944506466654E+00
    0.74435519005692252215E+00
    0.74161903180361687937E+00
    0.72010899116172610857E+00
    0.73537481098114620970E+00
    0.71130862110990189517E+00
    0.69846571410338809116E+00
    0.65435381243742185564E+00
    0.67591025491302481054E+00
    0.65231982741749405807E+00
    0.65303593778564961170E+00
    0.66400837224224651401E+00
    0.65712447068168888809E+00
    0.67707253921227428251E+00
    0.70183714971611721456E+00
    0.73283789972584689743E+00
    0.71878711110510618010E+00
    0.72865929300251430778E+00
    0.72474965284407533161E+00
    0.70808642787190723134E+00
    0.71696617218936142812E+00
    0.70082108030745293714E+00
    0.70686898099460104827E+00
    0.72104510401274601872E+00
    0.71594578338164482911E+00
    0.72359626843544955221E+00
    0.73217999064764505146E+00
    0.73415839943387029010E+00
    0.73618441624128694301E+00
    0.72523368697704371222E+00
    0.71879385019277697300E+00
    0.69459086126552405105E+00
    0.70718053864232355288E+00
    0.67760667686094366857E+00
    0.68482302760227731220E+00
    0.69832340923362101748E+00
    0.69132888332251196672E+00
    0.70083782742720202030E+00
    0.70334844513465011318E+00
    0.70411181574693360030E+00
    0.70463102677462874368E+00
    0.70252372590558243015E+00
    0.69577324875112545044E+00
    0.68286578398840158677E+00
    0.68835255623465974040E+00
    0.67200516516570019121E+00
    0.65792968140381480335E+00
    0.63107303524403701722E+00
    0.64406518372919663307E+00
    0.73015311514006930871E+00
    0.73276217443885094394E+00
    0.73096502234541516074E+00
    0.73173394516579493008E+00
    0.72777330048490140868E+00
    0.72936377453913781022E+00
    0.72990309614072290678E+00
    0.73119299722320474366E+00
    0.72502233523162951112E+00
    0.72153002638334751140E+00
    0.70312204287964286120E+00
    0.71419528846534230393E+00
    0.68832319759383697733E+00
    0.67285073404556239307E+00
    0.63859941216162785516E+00
    0.65515449145573623202E+00
    0.62660119267366365392E+00
    0.66632100946948402687E+00
    0.69856457842228869559E+00
    0.64548663496633418291E+00
    0.68696573778160874291E+00
    0.66341738289890472835E+00
    0.69858778925591580311E+00
    0.72210918765308418354E+00
    0.71897552655003282851E+00
    0.68894364182632161775E+00
    0.73582750329759472052E+00
    0.72560483834875322273E+00
    0.74744729729774395111E+00
    0.74114760367440535305E+00
    0.73346321026839644830E+00
    0.73609796810145700086E+00
    0.64470794299507216962E+00
    0.63031837945093593945E+00
    0.67989893674700674353E+00
    0.62768596296158651882E+00
    0.63923312439914481420E+00
    0.61239390972737783869E+00
    0.64096583576360721679E+00
    0.75570778947934880154E+00
    0.75241509471707956891E+00
    0.74910859931272799628E+00
    0.74658192599127559674E+00
    0.75052611848671058059E+00
    0.75551713407172671477E+00
    0.72033789526419511606E+00
    0.67060507428330229374E+00
    0.70629661988128999983E+00
    0.68805215257694962716E+00
    0.70502531477466778842E+00
    0.70207944130801647198E+00
    0.63920286623544708693E+00
    0.63932384108045869908E+00
    0.60522515215334227179E+00
    0.60094993586063338853E+00
    0.62737566866736993454E+00
    0.74143693448661107670E+00
    0.74266382776079697958E+00
    0.75444872457052969406E+00
    0.74380620881358838759E+00
    0.75253926072393195756E+00
    0.74731460153429551951E+00
    0.72993366359677680499E+00
    0.74821298654259604799E+00
    0.74319436269797289896E+00
    0.72625445484840933652E+00
    0.73777781626616567578E+00
    0.73574494057541484082E+00
    0.73578104246114039988E+00
    0.73514390375005600475E+00
    0.74196547097551890371E+00
    0.72169236972233774541E+00
    0.75105395488007897775E+00
    0.75069143005487737330E+00
    0.71832306147064628465E+00
    0.72845602876852499907E+00
    0.74167061812436130275E+00
    0.73301790976777725373E+00
    0.74371921251518557927E+00
    0.73774500752786920099E+00
    0.74315671669292959756E+00
    0.73793137534640740327E+00
    0.73600216054770362106E+00
    0.70217625035004382905E+00
    0.68111781893763589935E+00
    0.71223077023951619768E+00
    0.68990103896792209781E+00
    0.67529970996045429743E+00
    0.69150264708538922154E+00
    0.69854923915424360636E+00
    0.71642002443257724043E+00
    0.70986031727166054583E+00
    0.68453134651961322632E+00
    0.73547871202249925915E+00
    0.73242103545177528190E+00
    0.68839785574698253434E+00
    0.69312720659230853126E+00
    0.66188082631846523185E+00
    0.63420534355332602860E+00
    0.63168757449728463182E+00
    0.65662978222922163685E+00
    0.62220999278613009498E+00
    0.64630723045748206257E+00
    0.71967393731289119874E+00
    0.67922837762620180690E+00
    0.66083934271443167674E+00
    0.71710475388360861437E+00
    0.69461507684143719565E+00
    0.74831263088993571486E+00
    0.68713906779067490671E+00
    0.70698253235906927117E+00
    0.72198094456865113955E+00
    0.73302072455165911968E+00
    0.74996873146952180988E+00
    0.75210583859777835336E+00
    0.75160845463908032560E+00
    0.74555065494117633840E+00
    0.74859827403637102528E+00
    0.72643401757894188187E+00
    0.66907944113789707963E+00
    0.70260960100894886970E+00
    0.70992433949896316392E+00
    0.66949755476846073421E+00
    0.75598773275519803860E+00
    0.73595125274346218092E+00
    0.72622072642164636758E+00
    0.75825358302095624552E+00
    0.74256526399796707327E+00
    0.65357061084321377287E+00
    0.70644443376924803690E+00
    0.67028122939417245085E+00
    0.71367249519865982865E+00
    0.68390798683878784026E+00
    0.75853076425970833441E+00
    0.72922624021422199903E+00
    0.74508300625016454788E+00
    0.75553570629825972382E+00
    0.73389787866427336205E+00
    0.63388882718588623888E+00
    0.66879621962396684776E+00
    0.62592248637828185043E+00
    0.64421099641056811524E+00
    0.62311862650143146070E+00
    0.74656478274996729283E+00
    0.74194861079298435325E+00
    0.74272402761873224097E+00
    0.75206094739417561623E+00
    0.74602466615611540135E+00
    0.72961269138742668172E+00
    0.73270529419040697494E+00
    0.73519100293987560413E+00
    0.72559693049911300200E+00
    0.73888580753018917591E+00
    0.64441445272699016122E+00
    0.61942276826443631865E+00
    0.62098616409247342496E+00
    0.63716707375111214517E+00
    0.62533564295054033799E+00
    0.73652632253075456248E+00
    0.73287899789469612699E+00
    0.71625583456377583946E+00
    0.72542686028464842263E+00
    0.71235865622643501638E+00
    0.67684486486448125486E+00
    0.72113270672999307820E+00
    0.70820809967740916413E+00
    0.68903220114479357683E+00
    0.65122546109796253244E+00
    0.68061239620326019484E+00
    0.70055490897066807765E+00
    0.72487294944928681861E+00
    0.74694238997172213157E+00
    0.74040076427666989822E+00
    0.71757298899095112166E+00
    0.73758582001651085136E+00
    0.75139516158514108035E+00
    0.75052753746332956375E+00
    0.74741237549191741341E+00
    0.75452275161801862779E+00
    0.74911953185847235392E+00
    0.75882641710345499764E+00
    0.74355276449681706463E+00
    0.73433784797346735029E+00
    0.73070876153263797370E+00
    0.73210452330746933480E+00
    0.63801085412196667512E+00
    0.68360183892153070229E+00
    0.65029135794034775842E+00
    0.66368856683753307824E+00
    0.73379274743207345555E+00
    0.74713305315233013992E+00
    0.73997391001266987764E+00
    0.65323432578895568312E+00
    0.66237053588722460962E+00
    0.74748671874847638641E+00
    0.73870379057785151566E+00
    0.71602840412044432838E+00
    0.74636100676848715629E+00
    0.75418815923095472442E+00
    0.74137980612372511580E+00
    0.72872390444789769681E+00
    0.72944451699819279344E+00
    0.72893429646883478590E+00
    0.70285899546428021178E+00
    0.71839627375874415272E+00
    0.70800425170745717729E+00
    0.75410394758250431924E+00
    0.75803480082054530698E+00
    0.73014946223677346104E+00
    0.66894513140869271695E+00
    0.68529292944743225302E+00
    0.68366968828080199039E+00
    0.73896061781589950090E+00
    0.73940565262156277004E+00
    0.69713830128620646320E+00
    0.73036982392995364322E+00
    0.71935285947654747929E+00
    0.68746964127005960599E+00
    0.67445710244872913997E+00
    0.64290082272137727415E+00
    0.64431605754954879295E+00
    0.64600331946135458594E+00
    0.73104324343134696740E+00
    0.70726797809836283726E+00
    0.72482393504821684971E+00
    0.71561061945759163461E+00
    0.74295558202182843122E+00
    0.75115732718800898304E+00
    0.75072894801609013626E+00
    0.73918507662648202938E+00
    0.64707429819670436721E+00
    0.61551257564529571198E+00
    0.63353672910713365596E+00
    0.69120770474609838363E+00
    0.68890782998721777908E+00
    0.74705205500196703028E+00
    0.74797902268477645116E+00
    0.70909936028954478893E+00
    0.71872048485389894434E+00
    0.72533031176586115762E+00
    0.72937936353173971060E+00
    0.66884184300366933407E+00
    0.67355812287180616416E+00
    0.72986009254932071588E+00
    0.75091167643557388267E+00
    0.75239869067028031235E+00
    0.65196943065938584017E+00
    0.74543711111456056884E+00
    0.72491693049157657214E+00
    0.59406980089591865379E+00
    0.73942557886207138651E+00
    0.64926723884739012682E+00
    0.71941108580050294741E+00
    0.70552391824532967313E+00
    0.71983554748024314307E+00
    0.70768794103782317606E+00
    0.74881415820866725763E+00
    0.75099808482717622660E+00
    0.74450746104522147473E+00
    0.72124734968889492315E+00
    0.68832421990212000473E+00
    0.75618307170564291741E+00
    0.67089212431926004143E+00
    0.71726671421237941928E+00
    0.63317446503561392035E+00
    0.74874668739879823853E+00
    0.72920950626286606955E+00
    0.71222097783746374233E+00
    0.73266160479283071183E+00
    0.72589323907820624271E+00
    0.66158711456552454777E+00
    0.64324052717913593469E+00
    0.58956418232631901954E+00
    0.59726159293110092641E+00
    0.73627613454241291890E+00
    0.71419868821966603356E+00
    0.68934533616091342445E+00
    0.66411392734713869945E+00
    0.65742521264050735041E+00
    0.67384695217704215775E+00
    0.71165791158924396331E+00
    0.71819514519298244259E+00
    0.70755057830781198369E+00
    0.71106560474297830776E+00
    0.72044323622911066174E+00
    0.72747488921227287939E+00
    0.72089944215765422442E+00
    0.70250074915531390829E+00
    0.66692166015413056890E+00
    0.67900741925530461174E+00
    0.68454707489201938042E+00
    0.68284103817196606379E+00
    0.67339145632211216963E+00
    0.65540365147304535665E+00
    0.62878365364229282797E+00
    0.71989711229697095352E+00
    0.71968039031976360764E+00
    0.71894026064130689413E+00
    0.71476832079644259110E+00
    0.70293243671008753815E+00
    0.67887024761295300390E+00
    0.64598577297868642333E+00
