# vtk DataFile Version 3.0
LAPLACIEN  2D
ASCII
DATASET UNSTRUCTURED_GRID
 POINTS         391  float
  0.50371505999999999       0.50367786999999997        0.0000000000000000     
  0.29013556000000001       0.29014535000000002        0.0000000000000000     
  0.70165584999999997       0.71206597999999999        0.0000000000000000     
  0.70304188999999995       0.30176619999999998        0.0000000000000000     
  0.30920671999999999       0.71149227999999998        0.0000000000000000     
  0.79044983999999996       0.49884783999999999        0.0000000000000000     
  0.49102621000000002       0.20968644000000000        0.0000000000000000     
  0.49912957000000002       0.77208717000000004        0.0000000000000000     
  0.21724072999999999       0.48989389000000000        0.0000000000000000     
  0.83255933999999998       0.83046598000000005        0.0000000000000000     
  0.16646774000000000       0.17015694000000001        0.0000000000000000     
  0.83054514999999995       0.16736480000000001        0.0000000000000000     
  0.16953130999999999       0.83265739000000005        0.0000000000000000     
  0.42166445000000002       0.36345201999999999        0.0000000000000000     
  0.64462200999999997       0.56347807999999999        0.0000000000000000     
  0.35324633999999999       0.56311191000000005        0.0000000000000000     
  0.65456411000000003       0.84856860999999995        0.0000000000000000     
  0.35141477999999998       0.15563974000000000        0.0000000000000000     
  0.15290967000000000       0.35206625000000003        0.0000000000000000     
  0.82942241000000005       0.34936866000000000        0.0000000000000000     
  0.84390527000000004       0.64441694999999999        0.0000000000000000     
  0.63699174999999997       0.14284276000000001        0.0000000000000000     
  0.15620682999999999       0.64648446999999998        0.0000000000000000     
  0.36426062999999997       0.85756310999999996        0.0000000000000000     
  0.63489340999999999       0.40519052000000000        0.0000000000000000     
  0.52518872999999999       0.65957078000000002        0.0000000000000000     
  0.32158959999999998       0.42298103999999997        0.0000000000000000     
  0.58861710000000000       0.31711036999999997        0.0000000000000000     
  0.42078418000000001       0.69497151999999995        0.0000000000000000     
  0.48608786999999998       0.89334152000000000        0.0000000000000000     
   9.7084320000000002E-002  0.50000000000000000        0.0000000000000000     
  0.90291568000000000       0.50000000000000000        0.0000000000000000     
  0.51392453000000005       0.10668648999999999        0.0000000000000000     
  0.59792566999999996       0.73122754000000001        0.0000000000000000     
  0.74510058999999995       0.41124730999999998        0.0000000000000000     
  0.73212551999999997       0.90191560000000004        0.0000000000000000     
   9.7784830000000003E-002  0.26957329000000002        0.0000000000000000     
  0.26711221000000002        9.8671499999999995E-002   0.0000000000000000     
  0.90191560000000004       0.26787448000000003        0.0000000000000000     
  0.90118569000000004       0.73039821000000005        0.0000000000000000     
  0.73122947000000005        9.8017859999999998E-002   0.0000000000000000     
   9.8084400000000002E-002  0.73212551999999997        0.0000000000000000     
  0.26957329000000002       0.90221516999999996        0.0000000000000000     
  0.39283522999999998       0.25360379000000000        0.0000000000000000     
  0.74480864000000002       0.60495284999999999        0.0000000000000000     
  0.25505132000000003       0.60593640999999998        0.0000000000000000     
  0.52159297999999998       0.40671636000000000        0.0000000000000000     
  0.40768852000000000       0.47699891000000000        0.0000000000000000     
   9.1467049999999994E-002   9.1876959999999994E-002   0.0000000000000000     
  0.90842484999999995       0.90819225000000003        0.0000000000000000     
  0.90820104999999995        9.1566729999999999E-002   0.0000000000000000     
   9.1807449999999999E-002  0.90843574000000005        0.0000000000000000     
  0.27098960000000000       0.20527094000000001        0.0000000000000000     
  0.73457293999999995       0.79835387000000002        0.0000000000000000     
  0.79817773000000003       0.25713470999999999        0.0000000000000000     
  0.20747797000000001       0.72863946000000002        0.0000000000000000     
  0.20175195000000001       0.27583914999999998        0.0000000000000000     
  0.79603889000000005       0.72159035000000005        0.0000000000000000     
  0.71761666000000002       0.19748431999999999        0.0000000000000000     
  0.28462607000000001       0.80251899999999998        0.0000000000000000     
  0.69134598999999997       0.49261972999999998        0.0000000000000000     
  0.44720578999999999       0.58582935999999997        0.0000000000000000     
  0.24242269999999999       0.37228174000000003        0.0000000000000000     
  0.38265623999999998       0.93072131999999996        0.0000000000000000     
  0.60971754000000000       0.91988369000000003        0.0000000000000000     
   7.9163609999999995E-002  0.60979116000000000        0.0000000000000000     
  0.92010649000000000       0.61081183999999999        0.0000000000000000     
  0.61954008999999999        7.1530830000000004E-002   0.0000000000000000     
  0.91882012999999996       0.38917363999999999        0.0000000000000000     
  0.39086346000000000        8.0652249999999995E-002   0.0000000000000000     
   7.9183480000000001E-002  0.38966213000000000        0.0000000000000000     
  0.59114111999999996       0.49294315000000000        0.0000000000000000     
  0.63337980999999999       0.64485914000000000        0.0000000000000000     
  0.50012352000000004       0.29676539000000002        0.0000000000000000     
  0.82552601000000003       0.92753492000000004        0.0000000000000000     
  0.92774772999999999       0.82498556999999995        0.0000000000000000     
   7.1970870000000006E-002  0.17510291000000000        0.0000000000000000     
  0.17422821999999999        7.2635640000000001E-002   0.0000000000000000     
  0.82510813000000005        7.2134840000000006E-002   0.0000000000000000     
  0.92754665000000003       0.17446275999999999        0.0000000000000000     
  0.17501022999999999       0.92789951999999998        0.0000000000000000     
   7.2464680000000004E-002  0.82554053000000005        0.0000000000000000     
  0.30731587999999999       0.50885354999999999        0.0000000000000000     
  0.59033407999999998       0.22171178999999999        0.0000000000000000     
  0.40109191999999999       0.78725542000000004        0.0000000000000000     
  0.35420917000000002       0.63754104000000000        0.0000000000000000     
  0.15983976999999999       0.56665573000000002        0.0000000000000000     
  0.84108459999999996       0.56757886999999996        0.0000000000000000     
  0.83902096000000004       0.43344338999999998        0.0000000000000000     
  0.43230028999999998       0.16004268999999999        0.0000000000000000     
  0.57536027999999995       0.83041363999999995        0.0000000000000000     
  0.15771898000000001       0.42747892999999998        0.0000000000000000     
  0.34021692999999997       0.34221559000000001        0.0000000000000000     
  0.56002271999999997       0.57501117999999996        0.0000000000000000     
  0.65344329000000001       0.78147597999999996        0.0000000000000000     
   0.0000000000000000        0.0000000000000000        0.0000000000000000     
   1.0000000000000000        0.0000000000000000        0.0000000000000000     
   1.0000000000000000        1.0000000000000000        0.0000000000000000     
   0.0000000000000000        1.0000000000000000        0.0000000000000000     
  0.11111111000000000        0.0000000000000000        0.0000000000000000     
  0.22222222000000000        0.0000000000000000        0.0000000000000000     
  0.33333332999999998        0.0000000000000000        0.0000000000000000     
  0.44444444000000000        0.0000000000000000        0.0000000000000000     
  0.55555555999999995        0.0000000000000000        0.0000000000000000     
  0.66666667000000002        0.0000000000000000        0.0000000000000000     
  0.77777777999999997        0.0000000000000000        0.0000000000000000     
  0.88888889000000004        0.0000000000000000        0.0000000000000000     
   1.0000000000000000       0.11111111000000000        0.0000000000000000     
   1.0000000000000000       0.22222222000000000        0.0000000000000000     
   1.0000000000000000       0.33333332999999998        0.0000000000000000     
   1.0000000000000000       0.44444444000000000        0.0000000000000000     
   1.0000000000000000       0.55555555999999995        0.0000000000000000     
   1.0000000000000000       0.66666667000000002        0.0000000000000000     
   1.0000000000000000       0.77777777999999997        0.0000000000000000     
   1.0000000000000000       0.88888889000000004        0.0000000000000000     
  0.88888889000000004        1.0000000000000000        0.0000000000000000     
  0.77777777999999997        1.0000000000000000        0.0000000000000000     
  0.66666667000000002        1.0000000000000000        0.0000000000000000     
  0.55555555999999995        1.0000000000000000        0.0000000000000000     
  0.44444444000000000        1.0000000000000000        0.0000000000000000     
  0.33333332999999998        1.0000000000000000        0.0000000000000000     
  0.22222222000000000        1.0000000000000000        0.0000000000000000     
  0.11111111000000000        1.0000000000000000        0.0000000000000000     
   0.0000000000000000       0.11111111000000000        0.0000000000000000     
   0.0000000000000000       0.22222222000000000        0.0000000000000000     
[...]
 CELL_DATA         354
 SCALARS E float
 LOOKUP_TABLE default
    0.71493175970384004181E+00
    0.69212441607929897636E+00
    0.65773842841376417567E+00
    0.60634959746277494741E+00
    0.72624068795530793974E+00
    0.72166568050848334259E+00
    0.69384550573716485822E+00
    0.69888754446626344397E+00
    0.70784185742693794818E+00
    0.69544305413354756684E+00
    0.66564014891999256918E+00
    0.68152617058515196913E+00
    0.65782857333027155988E+00
    0.66200590267350700735E+00
    0.67063800425130681848E+00
    0.66589172157996989743E+00
    0.67975559462019208290E+00
    0.69034781714838500122E+00
    0.72761559451402046950E+00
    0.72141772840807183442E+00
    0.71264996573273609037E+00
    0.70919896676823934722E+00
    0.70502258083830982027E+00
    0.69571092419512958749E+00
    0.69973649567314810671E+00
    0.69508451083241351576E+00
    0.71278273763022426124E+00
    0.71490237080688190385E+00
    0.67820858950894291617E+00
    0.70287217443972538344E+00
    0.71901246977116917147E+00
    0.71992993269484606422E+00
    0.71639595625258567502E+00
    0.70794530007851674824E+00
    0.67927627378080135401E+00
    0.69324115034863975637E+00
    0.66965607439787833144E+00
    0.67509161165814246530E+00
    0.69181569184142366336E+00
    0.68401110385090968524E+00
    0.69402192345566671161E+00
    0.69548326614108957333E+00
    0.69812043753227837062E+00
    0.69724648512576670178E+00
    0.69715501778369382002E+00
    0.69006391393304700177E+00
    0.67674788570684152322E+00
    0.68155032304650975394E+00
    0.66704454249700129154E+00
    0.65287288591475234334E+00
    0.62409425150790653891E+00
    0.63526361524874142006E+00
    0.71965080535865111333E+00
    0.72150359711703926369E+00
    0.72332299910108588392E+00
    0.72265880717367847463E+00
    0.71947937330119193788E+00
    0.71995133878237838054E+00
    0.71920136925108624215E+00
    0.72049193589288396122E+00
    0.71581153513763895457E+00
    0.71152821545996369768E+00
    0.69390585432350182504E+00
    0.70321764869202696424E+00
    0.68206630190985928497E+00
    0.66593101340926785792E+00
    0.62703671535922067548E+00
    0.64510340440496960479E+00
    0.61800220935697169899E+00
    0.65021026434891537882E+00
    0.67203562346869127886E+00
    0.63465234621368815660E+00
    0.66464380011927237657E+00
    0.66182477448847798485E+00
    0.68878362022392392028E+00
    0.69785571214324704226E+00
    0.69299669207209879662E+00
    0.67365809917044250366E+00
    0.70650175777082346862E+00
    0.71531733033015876266E+00
    0.71684269142675594022E+00
    0.71127524441599199179E+00
    0.73622496925453495553E+00
    0.69076346441271307963E+00
    0.62736306781945505584E+00
    0.57749068407834980299E+00
    0.46661521422321861063E+00
    0.62425308866081585801E+00
    0.61815182742023555562E+00
    0.62734787211527098805E+00
    0.53684397318702870017E+00
    0.71991207452758188001E+00
    0.70531734627774578250E+00
    0.72297441357762104452E+00
    0.72409772683193451837E+00
    0.71697751658435693312E+00
    0.71153304488937596517E+00
    0.70035153028570840128E+00
    0.66085224191250158121E+00
    0.69116057373480344062E+00
    0.66893300693124491119E+00
    0.69648493417600554345E+00
    0.68503938547817666560E+00
    0.61039556890329904615E+00
    0.60475061473434332804E+00
    0.58677028373144846096E+00
    0.59118461495580643117E+00
    0.60965620181518320742E+00
    0.71362100576854525791E+00
    0.71080117066490677846E+00
    0.72980740439538904774E+00
    0.70788018442867617352E+00
    0.71516209821155451998E+00
    0.71428351467658834917E+00
    0.70101979540172343341E+00
    0.71463197747726792119E+00
    0.71973970555358479650E+00
    0.71768074342528664911E+00
    0.73798193679362711350E+00
    0.68424810262503954483E+00
    0.73179629237300680700E+00
    0.71439212980564492650E+00
    0.72076057484575628553E+00
    0.70521633661219862432E+00
    0.72538581242251887193E+00
    0.72604644759963321565E+00
    0.70431723230534459823E+00
    0.71248063974287556555E+00
    0.70572749984498761577E+00
    0.72338918470216728718E+00
    0.71323005659842975135E+00
    0.73672533321241351345E+00
    0.72956654547150912027E+00
    0.70695635427888081637E+00
    0.70818233732649893408E+00
    0.68754799145561928952E+00
    0.66920612109849875182E+00
    0.69700462181960287644E+00
    0.66530549769304192509E+00
    0.65086422454247983005E+00
    0.68561223389242920145E+00
    0.69535047728105947584E+00
    0.69877789553387870125E+00
    0.69333781127513127718E+00
    0.67105637423166264455E+00
    0.71166126900808801548E+00
    0.70955070945033749119E+00
    0.67697236521337278425E+00
    0.68104429253183085269E+00
    0.65022814124598971031E+00
    0.61161292322880012051E+00
    0.61947899708546050324E+00
    0.63475792363412752994E+00
    0.60823489342644332378E+00
    0.63796283791271868324E+00
    0.69042765676738748759E+00
    0.66539127507143924767E+00
    0.65485598853151905097E+00
    0.69271438783600414180E+00
    0.67856620421159674628E+00
    0.73068018982441518272E+00
    0.68203406680051625877E+00
    0.69036224564926473857E+00
    0.69612990875427316340E+00
    0.73010226834119251738E+00
    0.72204499774079544672E+00
    0.72836804167783775199E+00
    0.72405681085211437420E+00
    0.72380127419224171703E+00
    0.72572539206718245097E+00
    0.69542857992445561433E+00
    0.65451216462740624547E+00
    0.68652947147959197949E+00
    0.68060099670755269674E+00
    0.65612543566830650033E+00
    0.71638982931516559383E+00
    0.71994939783561995306E+00
    0.71894852824612076603E+00
    0.71387973575760277356E+00
    0.71230375046387783833E+00
    0.64752487173125039543E+00
    0.68424483821453285781E+00
    0.65647347720830673268E+00
    0.69004397714081222581E+00
    0.67889139869285808349E+00
    0.72278283400432652428E+00
    0.71771615044092362812E+00
    0.71010794993253212315E+00
    0.71992331502458639658E+00
    0.71925341518004259900E+00
    0.61255202926086205206E+00
    0.63456842642822031131E+00
    0.60536657578126307211E+00
    0.63119506316550189062E+00
    0.58795538145878323277E+00
    0.72091416168326127867E+00
    0.72209139818377554576E+00
    0.72223561555863491357E+00
    0.72645196159557745563E+00
    0.72527128984569977366E+00
    0.71188469065580972650E+00
    0.70974397340023831493E+00
    0.71804973509832970002E+00
    0.70838678914423292010E+00
    0.71802499403447050952E+00
    0.51920342519995055230E+00
    0.62291228257549113856E+00
    0.57853853101523144975E+00
    0.61869855437134368970E+00
    0.62058835804976186790E+00
    0.72134743745967955242E+00
    0.71741246472538411361E+00
    0.70401113695900341405E+00
    0.70861812890723352432E+00
    0.69249442891960155677E+00
    0.66819605619061273050E+00
    0.69025056380687710433E+00
    0.68952191380463756509E+00
    0.67205803594314095228E+00
    0.49091615024475576678E+00
    0.44741642511592794040E+00
    0.42670124378947105193E+00
    0.72444467314238103484E+00
    0.70199245663854692445E+00
    0.73541381946460426811E+00
    0.70614243118799269183E+00
    0.71355350503869074963E+00
    0.72430313869906226554E+00
    0.72365509565150576421E+00
    0.72508085444762038208E+00
    0.72495339033540961982E+00
    0.71910424832712405152E+00
    0.72400687919666906200E+00
    0.72213511294438847976E+00
    0.72325745137292296594E+00
    0.73127384699060160589E+00
    0.69984489068612965035E+00
    0.64116196304460015831E+00
    0.65973422563336203694E+00
    0.60363604523602454321E+00
    0.63199949245171938017E+00
    0.73778136569623731233E+00
    0.71679670061387290581E+00
    0.69483970656990790005E+00
    0.63792605856001227682E+00
    0.66374516982424591749E+00
    0.72187269663720554647E+00
    0.71266973928017762763E+00
    0.70144004097231826833E+00
    0.71154103211703090270E+00
    0.72040038080415125243E+00
    0.70911532882953098866E+00
    0.71603365968391252672E+00
    0.69806710196078247677E+00
    0.69221627718795442075E+00
    0.67738553337709106472E+00
    0.69709553719161754248E+00
    0.70285066116310179751E+00
    0.72064003543518662109E+00
    0.72659168004648644335E+00
    0.71620299435538115063E+00
    0.64025032300438433630E+00
    0.65678812624470783721E+00
    0.67928212450637348585E+00
    0.71529126378139173958E+00
    0.71379654064743591757E+00
    0.68544548819896156111E+00
    0.70872656721850868511E+00
    0.69723246160411456174E+00
    0.67567233844922092167E+00
    0.66792214035198904654E+00
    0.59627968111546192365E+00
    0.62848910370574073703E+00
    0.64294468846028152154E+00
    0.70132948522807669889E+00
    0.68058394369233199406E+00
    0.70794589693311327228E+00
    0.71435838979974852769E+00
    0.71965589001702756633E+00
    0.73848444643352739725E+00
    0.72825336827588005306E+00
    0.69289491855098384043E+00
    0.62217726349984614487E+00
    0.61861797491845516017E+00
    0.54935551325741449613E+00
    0.67635814063670496310E+00
    0.68184380471151284642E+00
    0.72710658235427316765E+00
    0.71514661709638405185E+00
    0.69164387358241419257E+00
    0.70040410766750027527E+00
    0.71799189475255109638E+00
    0.72213591179661285047E+00
    0.65223594483060987059E+00
    0.65750919966256959892E+00
    0.71736532876143055404E+00
    0.71828952076476360045E+00
    0.72907847137173409369E+00
    0.63099994207858278727E+00
    0.72260872836973522038E+00
    0.71182403848247954858E+00
    0.61777236275384195263E+00
    0.72115798830849153767E+00
    0.63574939573316713304E+00
    0.71718120935170115438E+00
    0.68567034742766430622E+00
    0.71983427707126179662E+00
    0.68617126915504356166E+00
    0.72292792378471948389E+00
    0.72828471802007188618E+00
    0.73038423353349002376E+00
    0.69703615280199138216E+00
    0.65961156293355993618E+00
    0.71618893328834953849E+00
    0.65614908466389176844E+00
    0.69229363119466502674E+00
    0.51726532199659536193E+00
    0.72686917894480385094E+00
    0.71534034990196171400E+00
    0.70692538121623449410E+00
    0.72086805619842675430E+00
    0.70644740444293707693E+00
    0.65183524237433654314E+00
    0.64237700313952594833E+00
    0.59145029458061459948E+00
    0.59311872764230644250E+00
    0.72020852491327591594E+00
    0.71474868038204975029E+00
    0.69397859925666527392E+00
    0.67781883045023527679E+00
    0.67442445894890923341E+00
    0.68573959125890682209E+00
    0.70926470030478339091E+00
    0.70491438032250164358E+00
    0.71412289915885784897E+00
    0.70683764845016183731E+00
    0.70362793754219721265E+00
    0.72095394750682673113E+00
    0.71385489548202452070E+00
    0.69183336218759339253E+00
    0.66415807926812786555E+00
    0.67833619895718710868E+00
    0.68392369230727867446E+00
    0.68264682992187875055E+00
    0.67275865850097038567E+00
    0.65577383449923787317E+00
    0.62800421392593497316E+00
    0.71476454344818263209E+00
    0.71711645854567573899E+00
    0.71635381249372387380E+00
    0.71101786403547739823E+00
    0.69889012979275333404E+00
    0.67608949386983963059E+00
    0.64154507426012119531E+00
