# vtk DataFile Version 3.0
LAPLACIEN  2D
ASCII
DATASET UNSTRUCTURED_GRID
 POINTS         391  float
  0.50371505999999999       0.50367786999999997        0.0000000000000000     
  0.29013556000000001       0.29014535000000002        0.0000000000000000     
  0.70165584999999997       0.71206597999999999        0.0000000000000000     
  0.70304188999999995       0.30176619999999998        0.0000000000000000     
  0.30920671999999999       0.71149227999999998        0.0000000000000000     
  0.79044983999999996       0.49884783999999999        0.0000000000000000     
  0.49102621000000002       0.20968644000000000        0.0000000000000000     
  0.49912957000000002       0.77208717000000004        0.0000000000000000     
  0.21724072999999999       0.48989389000000000        0.0000000000000000     
  0.83255933999999998       0.83046598000000005        0.0000000000000000     
  0.16646774000000000       0.17015694000000001        0.0000000000000000     
  0.83054514999999995       0.16736480000000001        0.0000000000000000     
  0.16953130999999999       0.83265739000000005        0.0000000000000000     
  0.42166445000000002       0.36345201999999999        0.0000000000000000     
  0.64462200999999997       0.56347807999999999        0.0000000000000000     
  0.35324633999999999       0.56311191000000005        0.0000000000000000     
  0.65456411000000003       0.84856860999999995        0.0000000000000000     
  0.35141477999999998       0.15563974000000000        0.0000000000000000     
  0.15290967000000000       0.35206625000000003        0.0000000000000000     
  0.82942241000000005       0.34936866000000000        0.0000000000000000     
  0.84390527000000004       0.64441694999999999        0.0000000000000000     
  0.63699174999999997       0.14284276000000001        0.0000000000000000     
  0.15620682999999999       0.64648446999999998        0.0000000000000000     
  0.36426062999999997       0.85756310999999996        0.0000000000000000     
  0.63489340999999999       0.40519052000000000        0.0000000000000000     
  0.52518872999999999       0.65957078000000002        0.0000000000000000     
  0.32158959999999998       0.42298103999999997        0.0000000000000000     
  0.58861710000000000       0.31711036999999997        0.0000000000000000     
  0.42078418000000001       0.69497151999999995        0.0000000000000000     
  0.48608786999999998       0.89334152000000000        0.0000000000000000     
   9.7084320000000002E-002  0.50000000000000000        0.0000000000000000     
  0.90291568000000000       0.50000000000000000        0.0000000000000000     
  0.51392453000000005       0.10668648999999999        0.0000000000000000     
  0.59792566999999996       0.73122754000000001        0.0000000000000000     
  0.74510058999999995       0.41124730999999998        0.0000000000000000     
  0.73212551999999997       0.90191560000000004        0.0000000000000000     
   9.7784830000000003E-002  0.26957329000000002        0.0000000000000000     
  0.26711221000000002        9.8671499999999995E-002   0.0000000000000000     
  0.90191560000000004       0.26787448000000003        0.0000000000000000     
  0.90118569000000004       0.73039821000000005        0.0000000000000000     
  0.73122947000000005        9.8017859999999998E-002   0.0000000000000000     
   9.8084400000000002E-002  0.73212551999999997        0.0000000000000000     
  0.26957329000000002       0.90221516999999996        0.0000000000000000     
  0.39283522999999998       0.25360379000000000        0.0000000000000000     
  0.74480864000000002       0.60495284999999999        0.0000000000000000     
  0.25505132000000003       0.60593640999999998        0.0000000000000000     
  0.52159297999999998       0.40671636000000000        0.0000000000000000     
  0.40768852000000000       0.47699891000000000        0.0000000000000000     
   9.1467049999999994E-002   9.1876959999999994E-002   0.0000000000000000     
  0.90842484999999995       0.90819225000000003        0.0000000000000000     
  0.90820104999999995        9.1566729999999999E-002   0.0000000000000000     
   9.1807449999999999E-002  0.90843574000000005        0.0000000000000000     
  0.27098960000000000       0.20527094000000001        0.0000000000000000     
  0.73457293999999995       0.79835387000000002        0.0000000000000000     
  0.79817773000000003       0.25713470999999999        0.0000000000000000     
  0.20747797000000001       0.72863946000000002        0.0000000000000000     
  0.20175195000000001       0.27583914999999998        0.0000000000000000     
  0.79603889000000005       0.72159035000000005        0.0000000000000000     
  0.71761666000000002       0.19748431999999999        0.0000000000000000     
  0.28462607000000001       0.80251899999999998        0.0000000000000000     
  0.69134598999999997       0.49261972999999998        0.0000000000000000     
  0.44720578999999999       0.58582935999999997        0.0000000000000000     
  0.24242269999999999       0.37228174000000003        0.0000000000000000     
  0.38265623999999998       0.93072131999999996        0.0000000000000000     
  0.60971754000000000       0.91988369000000003        0.0000000000000000     
   7.9163609999999995E-002  0.60979116000000000        0.0000000000000000     
  0.92010649000000000       0.61081183999999999        0.0000000000000000     
  0.61954008999999999        7.1530830000000004E-002   0.0000000000000000     
  0.91882012999999996       0.38917363999999999        0.0000000000000000     
  0.39086346000000000        8.0652249999999995E-002   0.0000000000000000     
   7.9183480000000001E-002  0.38966213000000000        0.0000000000000000     
  0.59114111999999996       0.49294315000000000        0.0000000000000000     
  0.63337980999999999       0.64485914000000000        0.0000000000000000     
  0.50012352000000004       0.29676539000000002        0.0000000000000000     
  0.82552601000000003       0.92753492000000004        0.0000000000000000     
  0.92774772999999999       0.82498556999999995        0.0000000000000000     
   7.1970870000000006E-002  0.17510291000000000        0.0000000000000000     
  0.17422821999999999        7.2635640000000001E-002   0.0000000000000000     
  0.82510813000000005        7.2134840000000006E-002   0.0000000000000000     
  0.92754665000000003       0.17446275999999999        0.0000000000000000     
  0.17501022999999999       0.92789951999999998        0.0000000000000000     
   7.2464680000000004E-002  0.82554053000000005        0.0000000000000000     
  0.30731587999999999       0.50885354999999999        0.0000000000000000     
  0.59033407999999998       0.22171178999999999        0.0000000000000000     
  0.40109191999999999       0.78725542000000004        0.0000000000000000     
  0.35420917000000002       0.63754104000000000        0.0000000000000000     
  0.15983976999999999       0.56665573000000002        0.0000000000000000     
  0.84108459999999996       0.56757886999999996        0.0000000000000000     
  0.83902096000000004       0.43344338999999998        0.0000000000000000     
  0.43230028999999998       0.16004268999999999        0.0000000000000000     
  0.57536027999999995       0.83041363999999995        0.0000000000000000     
  0.15771898000000001       0.42747892999999998        0.0000000000000000     
  0.34021692999999997       0.34221559000000001        0.0000000000000000     
  0.56002271999999997       0.57501117999999996        0.0000000000000000     
  0.65344329000000001       0.78147597999999996        0.0000000000000000     
   0.0000000000000000        0.0000000000000000        0.0000000000000000     
   1.0000000000000000        0.0000000000000000        0.0000000000000000     
   1.0000000000000000        1.0000000000000000        0.0000000000000000     
   0.0000000000000000        1.0000000000000000        0.0000000000000000     
  0.11111111000000000        0.0000000000000000        0.0000000000000000     
  0.22222222000000000        0.0000000000000000        0.0000000000000000     
  0.33333332999999998        0.0000000000000000        0.0000000000000000     
  0.44444444000000000        0.0000000000000000        0.0000000000000000     
  0.55555555999999995        0.0000000000000000        0.0000000000000000     
  0.66666667000000002        0.0000000000000000        0.0000000000000000     
  0.77777777999999997        0.0000000000000000        0.0000000000000000     
  0.88888889000000004        0.0000000000000000        0.0000000000000000     
   1.0000000000000000       0.11111111000000000        0.0000000000000000     
   1.0000000000000000       0.22222222000000000        0.0000000000000000     
   1.0000000000000000       0.33333332999999998        0.0000000000000000     
   1.0000000000000000       0.44444444000000000        0.0000000000000000     
   1.0000000000000000       0.55555555999999995        0.0000000000000000     
   1.0000000000000000       0.66666667000000002        0.0000000000000000     
   1.0000000000000000       0.77777777999999997        0.0000000000000000     
   1.0000000000000000       0.88888889000000004        0.0000000000000000     
  0.88888889000000004        1.0000000000000000        0.0000000000000000     
  0.77777777999999997        1.0000000000000000        0.0000000000000000     
  0.66666667000000002        1.0000000000000000        0.0000000000000000     
  0.55555555999999995        1.0000000000000000        0.0000000000000000     
  0.44444444000000000        1.0000000000000000        0.0000000000000000     
  0.33333332999999998        1.0000000000000000        0.0000000000000000     
  0.22222222000000000        1.0000000000000000        0.0000000000000000     
  0.11111111000000000        1.0000000000000000        0.0000000000000000     
   0.0000000000000000       0.11111111000000000        0.0000000000000000     
   0.0000000000000000       0.22222222000000000        0.0000000000000000     
[...]
 CELL_DATA         354
 SCALARS E float
 LOOKUP_TABLE default
    0.71353017401923990448E+00
    0.68810112582616189680E+00
    0.65675372564019318666E+00
    0.60574379033884473422E+00
    0.72496496365317164567E+00
    0.71872157436764894101E+00
    0.69276991113365027353E+00
    0.69605888721171527145E+00
    0.70675658994518475442E+00
    0.69437883426197910541E+00
    0.66494835811385899493E+00
    0.68068358513574167556E+00
    0.65689938222903310194E+00
    0.66120587694156163217E+00
    0.66977181011114628184E+00
    0.66518014340341014012E+00
    0.67883004221960452362E+00
    0.68903787233090407760E+00
    0.72781041333263285509E+00
    0.72125702536240998697E+00
    0.71001590519725643613E+00
    0.70835196872417460767E+00
    0.70367510055427051618E+00
    0.69313085585963984947E+00
    0.69829119431757535885E+00
    0.69349495887095691238E+00
    0.71105690188811621066E+00
    0.71452060030328889972E+00
    0.67410471848439346143E+00
    0.69943538313644149085E+00
    0.71720671139129765770E+00
    0.71754792084510277128E+00
    0.71499182694280805084E+00
    0.70670361264043546345E+00
    0.67816750074300313766E+00
    0.69206956481817616389E+00
    0.66866350115077433092E+00
    0.67399610916792274118E+00
    0.69063325627091354253E+00
    0.68291012822539776117E+00
    0.69263152320588827759E+00
    0.69413260549683630796E+00
    0.69674081062011783416E+00
    0.69592682767652225273E+00
    0.69592459764866443361E+00
    0.68892057734210920827E+00
    0.67555071526187981945E+00
    0.68031570674037111779E+00
    0.66598199559166826322E+00
    0.65201358365103190273E+00
    0.62330222505022636614E+00
    0.63426708179205326665E+00
    0.71826040128234136528E+00
    0.72013602371716534112E+00
    0.72182530749187145958E+00
    0.72120216000603576401E+00
    0.71769924416376484899E+00
    0.71824045873806641183E+00
    0.71762990520267533334E+00
    0.71891946752080471139E+00
    0.71429186733842109369E+00
    0.71009473075426565725E+00
    0.69252572837066050937E+00
    0.70181482244711634877E+00
    0.68092673969138550749E+00
    0.66499083406399139839E+00
    0.62597082595199504684E+00
    0.64412159907060029251E+00
    0.61754580765775068940E+00
    0.64961463254213724916E+00
    0.67157370920768710842E+00
    0.63403589580930430625E+00
    0.66460688987262184213E+00
    0.66161326511381157722E+00
    0.68842525492855255465E+00
    0.69663524822654887547E+00
    0.69190876379182020273E+00
    0.67320403385881844027E+00
    0.70603979849704900928E+00
    0.71507448586218713693E+00
    0.71300279152320822362E+00
    0.70930298476618280912E+00
    0.73713208336140634280E+00
    0.68701325137066759918E+00
    0.62705174313874134651E+00
    0.57758774555496539271E+00
    0.46279585171663190080E+00
    0.62457066555828222310E+00
    0.61772561850683471718E+00
    0.62837024028808641241E+00
    0.53569777034215360079E+00
    0.71860507507128001947E+00
    0.70236137866539150032E+00
    0.72060519726393024165E+00
    0.72261921446041244010E+00
    0.71386258641123223612E+00
    0.71143948471475171313E+00
    0.69951687747422153230E+00
    0.66063521744019015891E+00
    0.69043775806953566754E+00
    0.66868373404146086436E+00
    0.69542578542262489805E+00
    0.68466289768892174550E+00
    0.61014904941482006606E+00
    0.60444542247590837825E+00
    0.59057460398521377520E+00
    0.59512614978485289807E+00
    0.60878910457764678910E+00
    0.71506822102535072538E+00
    0.70858921564993782027E+00
    0.72885183344371040626E+00
    0.70568518900086818491E+00
    0.71149458221578631978E+00
    0.71050943707402947069E+00
    0.69958989514670588683E+00
    0.71190736058697046129E+00
    0.71960163626940953918E+00
    0.71776633211200679963E+00
    0.73853187931501662611E+00
    0.67996278139741173074E+00
    0.73271134341947641300E+00
    0.71299710363350332631E+00
    0.71921595265730187130E+00
    0.70405814142596689909E+00
    0.72411283329073050652E+00
    0.72473221440247714842E+00
    0.70291183627134490308E+00
    0.71109840633052456838E+00
    0.70308476063393898770E+00
    0.72396771954928484938E+00
    0.70969348094997686260E+00
    0.73684101135489132872E+00
    0.73056012661892100191E+00
    0.70255192563407675710E+00
    0.70614681270385049050E+00
    0.68683271118322986037E+00
    0.66848898906233034101E+00
    0.69598353947828617283E+00
    0.66507195998336321452E+00
    0.65040516834993300499E+00
    0.68445282222687986451E+00
    0.69414000483879600978E+00
    0.69747763667573059454E+00
    0.69205988418515018701E+00
    0.67007904053953581958E+00
    0.71045912089719254201E+00
    0.70833088528899912362E+00
    0.67582593459394890711E+00
    0.67985872173555872422E+00
    0.64963022572787021414E+00
    0.61053410310195765920E+00
    0.62029952550341160844E+00
    0.63421637390606011575E+00
    0.60926379841633659940E+00
    0.63688175174736605388E+00
    0.68956839546990278400E+00
    0.66513823641114799834E+00
    0.65475733603711117059E+00
    0.69178170492215929066E+00
    0.67850587346644608555E+00
    0.73133575303355125019E+00
    0.68102135032041377638E+00
    0.68916924091678688491E+00
    0.69492379230595213713E+00
    0.73099773449868576947E+00
    0.72092046948759147540E+00
    0.72723413139863735122E+00
    0.72309383510008928830E+00
    0.72234936943634153739E+00
    0.72424273204818934158E+00
    0.69404657685130355382E+00
    0.65417243084042286938E+00
    0.68610440094735170025E+00
    0.67945525888228108791E+00
    0.65540340486155435062E+00
    0.71436259638670462913E+00
    0.71996685671639881754E+00
    0.71999925133649844700E+00
    0.71014719556234728870E+00
    0.71211069284723937933E+00
    0.64714054940081000566E+00
    0.68339453724557386316E+00
    0.65603469589848018018E+00
    0.68909345955886480706E+00
    0.67875648997670878781E+00
    0.71945299614354396578E+00
    0.71772135497739386611E+00
    0.70852292072052769356E+00
    0.71931115022586489260E+00
    0.71926712150315175176E+00
    0.61108813444536469461E+00
    0.63353291628642138811E+00
    0.60431571916513682208E+00
    0.63013969206184983207E+00
    0.58755613664670236496E+00
    0.71991634356352807167E+00
    0.71959381985149450944E+00
    0.72077238605046034525E+00
    0.72545886210038923458E+00
    0.72300537445944490500E+00
    0.71021602482834289560E+00
    0.70870983760083949843E+00
    0.71674679146864161972E+00
    0.70713651876117866735E+00
    0.71636588219600105809E+00
    0.51807099185011495912E+00
    0.62346151985493547532E+00
    0.57871713379220546258E+00
    0.61854475718304402498E+00
    0.62077790220436845914E+00
    0.72180613190650977362E+00
    0.71771156778770972551E+00
    0.70291721767051373870E+00
    0.70720135110981674487E+00
    0.69131654940746489757E+00
    0.66762624347621168930E+00
    0.68898399488382144895E+00
    0.68811352887419829916E+00
    0.67150138793623026512E+00
    0.48847581092937808478E+00
    0.43829190231086689877E+00
    0.41669437842964129892E+00
    0.72451632939487253804E+00
    0.69660839522479267583E+00
    0.73708040104156968830E+00
    0.70483461698290328368E+00
    0.71224050810397565581E+00
    0.72299266920057991825E+00
    0.72237133368706074599E+00
    0.72385487421973337963E+00
    0.72284829989768606406E+00
    0.71588733501739210130E+00
    0.72252366699978154418E+00
    0.72121877210828377880E+00
    0.72264182447522951058E+00
    0.73165300903329644200E+00
    0.69869821047194247132E+00
    0.64022967662725172033E+00
    0.65927812670304741793E+00
    0.60366261228039030939E+00
    0.63111520780910290718E+00
    0.73889243656267711291E+00
    0.71286866852415997631E+00
    0.69170196939201222808E+00
    0.63742660502213432938E+00
    0.66370546129840179983E+00
    0.72061560379946221211E+00
    0.71149350516737219774E+00
    0.70013316209407072677E+00
    0.71233607168670087795E+00
    0.71714402680135591606E+00
    0.70473192010495977478E+00
    0.71539442109226791811E+00
    0.69663312004690747248E+00
    0.69218815993617166527E+00
    0.67705795744267183167E+00
    0.69524057880692891054E+00
    0.70114470948103302383E+00
    0.71784520298393916793E+00
    0.72438622291758281158E+00
    0.71477599188666651742E+00
    0.63937810642755477097E+00
    0.65625964946393922084E+00
    0.67833885295398155257E+00
    0.71410740914144188451E+00
    0.71265554806116726549E+00
    0.68425280472611982319E+00
    0.70755073612109264936E+00
    0.69611721937460901977E+00
    0.67448958244913803650E+00
    0.66789760805507258912E+00
    0.59659961960274565662E+00
    0.62747583612417479060E+00
    0.64199593308077818055E+00
    0.70186281158496244270E+00
    0.68012449467231850253E+00
    0.70644702140743842467E+00
    0.71312640860444265201E+00
    0.71708090177793415432E+00
    0.73939748816792250086E+00
    0.72871539312462330074E+00
    0.68948915650482422990E+00
    0.62196677765458674436E+00
    0.61854993910215594344E+00
    0.54883624190422408695E+00
    0.67564788690637622715E+00
    0.68089920315193297462E+00
    0.72570548207892315862E+00
    0.71168175241302389367E+00
    0.69051416978162949434E+00
    0.69930742370960774501E+00
    0.71766386390641445647E+00
    0.72227922758628393396E+00
    0.65108691315600653038E+00
    0.65645591811813941430E+00
    0.71684345592862208640E+00
    0.71518025556610265170E+00
    0.72701476050783941929E+00
    0.63048385541049389857E+00
    0.72140927872329407844E+00
    0.71062834630084914522E+00
    0.61936847453718268941E+00
    0.71953371797393517184E+00
    0.63518388537218894996E+00
    0.71739590507789352536E+00
    0.68510950894218247686E+00
    0.72172337240071327003E+00
    0.68555918449478481236E+00
    0.72178976256328852834E+00
    0.72719710671195847418E+00
    0.73174248101732941585E+00
    0.69609471349314155919E+00
    0.65893057279974653895E+00
    0.71328213157632736063E+00
    0.65615084420920344321E+00
    0.69136442000820252929E+00
    0.51379902216394546244E+00
    0.72497075905510632854E+00
    0.71407667662289009414E+00
    0.70543257706854489708E+00
    0.72007641592396842700E+00
    0.70234029713271362017E+00
    0.65083923777435059854E+00
    0.64148594269093783815E+00
    0.59104278423006939569E+00
    0.59232055540078620837E+00
    0.71720041803070588848E+00
    0.71352149836071288025E+00
    0.69239700191183495281E+00
    0.67636518042171733800E+00
    0.67300538846854041086E+00
    0.68422743950237330246E+00
    0.70817572644561921358E+00
    0.70306018419479154868E+00
    0.71333742310630476879E+00
    0.70585777537215976807E+00
    0.70100975582770852501E+00
    0.71863413264330588959E+00
    0.71231933422749693641E+00
    0.69062406047456070812E+00
    0.66306877847990575159E+00
    0.67711001014613292348E+00
    0.68268068014323801673E+00
    0.68138321685249503279E+00
    0.67161083605107774197E+00
    0.65475469883729542353E+00
    0.62728009494482117603E+00
    0.71321881252258012562E+00
    0.71549815407662542555E+00
    0.71477904800633895732E+00
    0.70949583287583184443E+00
    0.69753273040302066210E+00
    0.67489224565743721751E+00
    0.64068593677480434323E+00
