# vtk DataFile Version 3.0
LAPLACIEN  2D
ASCII
DATASET UNSTRUCTURED_GRID
 POINTS         391  float
  0.50371505999999999       0.50367786999999997        0.0000000000000000     
  0.29013556000000001       0.29014535000000002        0.0000000000000000     
  0.70165584999999997       0.71206597999999999        0.0000000000000000     
  0.70304188999999995       0.30176619999999998        0.0000000000000000     
  0.30920671999999999       0.71149227999999998        0.0000000000000000     
  0.79044983999999996       0.49884783999999999        0.0000000000000000     
  0.49102621000000002       0.20968644000000000        0.0000000000000000     
  0.49912957000000002       0.77208717000000004        0.0000000000000000     
  0.21724072999999999       0.48989389000000000        0.0000000000000000     
  0.83255933999999998       0.83046598000000005        0.0000000000000000     
  0.16646774000000000       0.17015694000000001        0.0000000000000000     
  0.83054514999999995       0.16736480000000001        0.0000000000000000     
  0.16953130999999999       0.83265739000000005        0.0000000000000000     
  0.42166445000000002       0.36345201999999999        0.0000000000000000     
  0.64462200999999997       0.56347807999999999        0.0000000000000000     
  0.35324633999999999       0.56311191000000005        0.0000000000000000     
  0.65456411000000003       0.84856860999999995        0.0000000000000000     
  0.35141477999999998       0.15563974000000000        0.0000000000000000     
  0.15290967000000000       0.35206625000000003        0.0000000000000000     
  0.82942241000000005       0.34936866000000000        0.0000000000000000     
  0.84390527000000004       0.64441694999999999        0.0000000000000000     
  0.63699174999999997       0.14284276000000001        0.0000000000000000     
  0.15620682999999999       0.64648446999999998        0.0000000000000000     
  0.36426062999999997       0.85756310999999996        0.0000000000000000     
  0.63489340999999999       0.40519052000000000        0.0000000000000000     
  0.52518872999999999       0.65957078000000002        0.0000000000000000     
  0.32158959999999998       0.42298103999999997        0.0000000000000000     
  0.58861710000000000       0.31711036999999997        0.0000000000000000     
  0.42078418000000001       0.69497151999999995        0.0000000000000000     
  0.48608786999999998       0.89334152000000000        0.0000000000000000     
   9.7084320000000002E-002  0.50000000000000000        0.0000000000000000     
  0.90291568000000000       0.50000000000000000        0.0000000000000000     
  0.51392453000000005       0.10668648999999999        0.0000000000000000     
  0.59792566999999996       0.73122754000000001        0.0000000000000000     
  0.74510058999999995       0.41124730999999998        0.0000000000000000     
  0.73212551999999997       0.90191560000000004        0.0000000000000000     
   9.7784830000000003E-002  0.26957329000000002        0.0000000000000000     
  0.26711221000000002        9.8671499999999995E-002   0.0000000000000000     
  0.90191560000000004       0.26787448000000003        0.0000000000000000     
  0.90118569000000004       0.73039821000000005        0.0000000000000000     
  0.73122947000000005        9.8017859999999998E-002   0.0000000000000000     
   9.8084400000000002E-002  0.73212551999999997        0.0000000000000000     
  0.26957329000000002       0.90221516999999996        0.0000000000000000     
  0.39283522999999998       0.25360379000000000        0.0000000000000000     
  0.74480864000000002       0.60495284999999999        0.0000000000000000     
  0.25505132000000003       0.60593640999999998        0.0000000000000000     
  0.52159297999999998       0.40671636000000000        0.0000000000000000     
  0.40768852000000000       0.47699891000000000        0.0000000000000000     
   9.1467049999999994E-002   9.1876959999999994E-002   0.0000000000000000     
  0.90842484999999995       0.90819225000000003        0.0000000000000000     
  0.90820104999999995        9.1566729999999999E-002   0.0000000000000000     
   9.1807449999999999E-002  0.90843574000000005        0.0000000000000000     
  0.27098960000000000       0.20527094000000001        0.0000000000000000     
  0.73457293999999995       0.79835387000000002        0.0000000000000000     
  0.79817773000000003       0.25713470999999999        0.0000000000000000     
  0.20747797000000001       0.72863946000000002        0.0000000000000000     
  0.20175195000000001       0.27583914999999998        0.0000000000000000     
  0.79603889000000005       0.72159035000000005        0.0000000000000000     
  0.71761666000000002       0.19748431999999999        0.0000000000000000     
  0.28462607000000001       0.80251899999999998        0.0000000000000000     
  0.69134598999999997       0.49261972999999998        0.0000000000000000     
  0.44720578999999999       0.58582935999999997        0.0000000000000000     
  0.24242269999999999       0.37228174000000003        0.0000000000000000     
  0.38265623999999998       0.93072131999999996        0.0000000000000000     
  0.60971754000000000       0.91988369000000003        0.0000000000000000     
   7.9163609999999995E-002  0.60979116000000000        0.0000000000000000     
  0.92010649000000000       0.61081183999999999        0.0000000000000000     
  0.61954008999999999        7.1530830000000004E-002   0.0000000000000000     
  0.91882012999999996       0.38917363999999999        0.0000000000000000     
  0.39086346000000000        8.0652249999999995E-002   0.0000000000000000     
   7.9183480000000001E-002  0.38966213000000000        0.0000000000000000     
  0.59114111999999996       0.49294315000000000        0.0000000000000000     
  0.63337980999999999       0.64485914000000000        0.0000000000000000     
  0.50012352000000004       0.29676539000000002        0.0000000000000000     
  0.82552601000000003       0.92753492000000004        0.0000000000000000     
  0.92774772999999999       0.82498556999999995        0.0000000000000000     
   7.1970870000000006E-002  0.17510291000000000        0.0000000000000000     
  0.17422821999999999        7.2635640000000001E-002   0.0000000000000000     
  0.82510813000000005        7.2134840000000006E-002   0.0000000000000000     
  0.92754665000000003       0.17446275999999999        0.0000000000000000     
  0.17501022999999999       0.92789951999999998        0.0000000000000000     
   7.2464680000000004E-002  0.82554053000000005        0.0000000000000000     
  0.30731587999999999       0.50885354999999999        0.0000000000000000     
  0.59033407999999998       0.22171178999999999        0.0000000000000000     
  0.40109191999999999       0.78725542000000004        0.0000000000000000     
  0.35420917000000002       0.63754104000000000        0.0000000000000000     
  0.15983976999999999       0.56665573000000002        0.0000000000000000     
  0.84108459999999996       0.56757886999999996        0.0000000000000000     
  0.83902096000000004       0.43344338999999998        0.0000000000000000     
  0.43230028999999998       0.16004268999999999        0.0000000000000000     
  0.57536027999999995       0.83041363999999995        0.0000000000000000     
  0.15771898000000001       0.42747892999999998        0.0000000000000000     
  0.34021692999999997       0.34221559000000001        0.0000000000000000     
  0.56002271999999997       0.57501117999999996        0.0000000000000000     
  0.65344329000000001       0.78147597999999996        0.0000000000000000     
   0.0000000000000000        0.0000000000000000        0.0000000000000000     
   1.0000000000000000        0.0000000000000000        0.0000000000000000     
   1.0000000000000000        1.0000000000000000        0.0000000000000000     
   0.0000000000000000        1.0000000000000000        0.0000000000000000     
  0.11111111000000000        0.0000000000000000        0.0000000000000000     
  0.22222222000000000        0.0000000000000000        0.0000000000000000     
  0.33333332999999998        0.0000000000000000        0.0000000000000000     
  0.44444444000000000        0.0000000000000000        0.0000000000000000     
  0.55555555999999995        0.0000000000000000        0.0000000000000000     
  0.66666667000000002        0.0000000000000000        0.0000000000000000     
  0.77777777999999997        0.0000000000000000        0.0000000000000000     
  0.88888889000000004        0.0000000000000000        0.0000000000000000     
   1.0000000000000000       0.11111111000000000        0.0000000000000000     
   1.0000000000000000       0.22222222000000000        0.0000000000000000     
   1.0000000000000000       0.33333332999999998        0.0000000000000000     
   1.0000000000000000       0.44444444000000000        0.0000000000000000     
   1.0000000000000000       0.55555555999999995        0.0000000000000000     
   1.0000000000000000       0.66666667000000002        0.0000000000000000     
   1.0000000000000000       0.77777777999999997        0.0000000000000000     
   1.0000000000000000       0.88888889000000004        0.0000000000000000     
  0.88888889000000004        1.0000000000000000        0.0000000000000000     
  0.77777777999999997        1.0000000000000000        0.0000000000000000     
  0.66666667000000002        1.0000000000000000        0.0000000000000000     
  0.55555555999999995        1.0000000000000000        0.0000000000000000     
  0.44444444000000000        1.0000000000000000        0.0000000000000000     
  0.33333332999999998        1.0000000000000000        0.0000000000000000     
  0.22222222000000000        1.0000000000000000        0.0000000000000000     
  0.11111111000000000        1.0000000000000000        0.0000000000000000     
   0.0000000000000000       0.11111111000000000        0.0000000000000000     
   0.0000000000000000       0.22222222000000000        0.0000000000000000     
[...]
 CELL_DATA         354
 SCALARS E float
 LOOKUP_TABLE default
    0.70938198244396599712E+00
    0.67697961422518648789E+00
    0.65383571757268665881E+00
    0.60395939547685029147E+00
    0.72109068315178970199E+00
    0.70907528957217480503E+00
    0.69159210283024108445E+00
    0.68915432791372799315E+00
    0.70332648495888916429E+00
    0.69132804971570616104E+00
    0.66271145054677704778E+00
    0.67811845766821687853E+00
    0.65406068318781251936E+00
    0.65877359045107442004E+00
    0.66713339667247673059E+00
    0.66289563218517488785E+00
    0.67617774365324745389E+00
    0.68540683194909624021E+00
    0.72806171322287815961E+00
    0.72073844109236251398E+00
    0.70218210082930543336E+00
    0.70565454924808568293E+00
    0.69984078771845059652E+00
    0.68651941892853995952E+00
    0.69441005818185952414E+00
    0.68948157894382022803E+00
    0.70626135171372672605E+00
    0.71336641583481630313E+00
    0.66374922077851461477E+00
    0.68988514079629759124E+00
    0.71183027351091410218E+00
    0.70987811101568409899E+00
    0.71082472431319265738E+00
    0.70301576004552501775E+00
    0.67487593313252947080E+00
    0.68859435926269452199E+00
    0.66572048918205273260E+00
    0.67074612186700410810E+00
    0.68712282612554109740E+00
    0.67963903659195923357E+00
    0.68852356230367062206E+00
    0.69013948088831866823E+00
    0.69265918364290823828E+00
    0.69201840213140042302E+00
    0.69227332079597603265E+00
    0.68552398290606675335E+00
    0.67200788313518189376E+00
    0.67666315835863133366E+00
    0.66282611052938722462E+00
    0.64946833594000286105E+00
    0.62096436934609766656E+00
    0.63130595618608742470E+00
    0.71413802965221151453E+00
    0.71607450873075251252E+00
    0.71731416492637967153E+00
    0.71684874955209343383E+00
    0.71235582955629617175E+00
    0.71311489993397769727E+00
    0.71296726410199307011E+00
    0.71422943500504554315E+00
    0.70980275468219544699E+00
    0.70585263642365358994E+00
    0.68844660592048778636E+00
    0.69766732541619347341E+00
    0.67754559786802459609E+00
    0.66219875590868759740E+00
    0.62278905233526959950E+00
    0.64120629730160438875E+00
    0.61617789928891730789E+00
    0.64795893702721873986E+00
    0.66995443715071267832E+00
    0.63178327514362808692E+00
    0.66425826725491332603E+00
    0.66062506500188367120E+00
    0.68706017496452909121E+00
    0.69283046508173207201E+00
    0.68833975194778129758E+00
    0.67150851921037446601E+00
    0.70659672805970141773E+00
    0.71525944975400967962E+00
    0.70042237593205702861E+00
    0.70421227441639899780E+00
    0.73839305530922927367E+00
    0.67814057887314038719E+00
    0.62610386064033685116E+00
    0.57794656185417259131E+00
    0.45291000562697736331E+00
    0.62520488643793503680E+00
    0.61626596836681424296E+00
    0.63090107419328766980E+00
    0.53357469379841093726E+00
    0.71505136762926935212E+00
    0.69501442454053596887E+00
    0.71256496630222310174E+00
    0.71816589222163429440E+00
    0.70414105303234864053E+00
    0.71431549516058734373E+00
    0.69699510714460155558E+00
    0.65978969027455525165E+00
    0.68796836203910349816E+00
    0.66778306056550618131E+00
    0.69206111989510465943E+00
    0.68336729932622786166E+00
    0.60996953145324739332E+00
    0.60418717361029439239E+00
    0.59829186300927816866E+00
    0.60326377855751056600E+00
    0.60600986352607799645E+00
    0.72115781201619078011E+00
    0.70232367413167584580E+00
    0.72592237665498215993E+00
    0.69987049217357055753E+00
    0.70027689589130626135E+00
    0.69867936988402745691E+00
    0.69557640034892675995E+00
    0.70403059769415343716E+00
    0.72085510846782696603E+00
    0.71807897277653587320E+00
    0.73921546092675327611E+00
    0.66839108426236459870E+00
    0.73705823459987807045E+00
    0.70886363312470956899E+00
    0.71460532183146618923E+00
    0.70061676085937407699E+00
    0.72024701344950115001E+00
    0.72072373045650317547E+00
    0.69875674036931334498E+00
    0.70700385355755746009E+00
    0.69532380941270899299E+00
    0.72584055270346514721E+00
    0.69894731389244701969E+00
    0.73668316996542204667E+00
    0.73387854588585721416E+00
    0.68884614820083567288E+00
    0.70035441823916944060E+00
    0.68434467112588759363E+00
    0.66616562998311323884E+00
    0.69297165057951359834E+00
    0.66416691037838559986E+00
    0.64869581895698258389E+00
    0.68093431088919720295E+00
    0.69026853789347653034E+00
    0.69362646729710597526E+00
    0.68827473188826759909E+00
    0.66717022151958182974E+00
    0.70688796610913218199E+00
    0.70470844422440481747E+00
    0.67242588911701495213E+00
    0.67634494173961789976E+00
    0.64760209211896802017E+00
    0.60736487847630671322E+00
    0.62208983636539161299E+00
    0.63229922263886251255E+00
    0.61173062473840400521E+00
    0.63370484987817166100E+00
    0.68671049755874635778E+00
    0.66421908358813541717E+00
    0.65422274910879019139E+00
    0.68864982621665982165E+00
    0.67811535529312960691E+00
    0.73227329801205987003E+00
    0.67796072983874366980E+00
    0.68552388274580955407E+00
    0.69102326456410945177E+00
    0.73290320806532627262E+00
    0.71756984096322740108E+00
    0.72384139723409579581E+00
    0.72020541356572609359E+00
    0.71803889235762097254E+00
    0.71976796648968655035E+00
    0.68961337733253280646E+00
    0.65289753800757888147E+00
    0.68441644886410935023E+00
    0.67584579840097525061E+00
    0.65292897941804317608E+00
    0.70881314409246720665E+00
    0.72185812213988209685E+00
    0.72249314491533078719E+00
    0.69961825704358060474E+00
    0.71243072228454029649E+00
    0.64562166566399725731E+00
    0.68031795521777671532E+00
    0.65470340423536677044E+00
    0.68578746141418700510E+00
    0.67811648835143800707E+00
    0.70899720286004352943E+00
    0.71816782195612749451E+00
    0.70412616984784304197E+00
    0.71830586165523524489E+00
    0.72030465529738463282E+00
    0.60680996316035085147E+00
    0.63062776745421134095E+00
    0.60049979855879986879E+00
    0.62701468646938252061E+00
    0.58560916434279985943E+00
    0.71693106133040185313E+00
    0.71116972977322989724E+00
    0.71639598049560127002E+00
    0.72248192123693222300E+00
    0.71528693235265172756E+00
    0.70530053947647497470E+00
    0.70562403637444570670E+00
    0.71287694057921702218E+00
    0.70342035131023528116E+00
    0.71146881610566647947E+00
    0.51553339100220663127E+00
    0.62490872737005531690E+00
    0.57995375633196821763E+00
    0.61786855371618054633E+00
    0.62112369675737533203E+00
    0.72357001532899700713E+00
    0.71974486858836939085E+00
    0.69939312055313518357E+00
    0.70271144277647135112E+00
    0.68754987506696463306E+00
    0.66572549192196350809E+00
    0.68516447105021760500E+00
    0.68386428707693480700E+00
    0.66954514692646194263E+00
    0.48242193313596759552E+00
    0.41743822153236342931E+00
    0.39408143326058675537E+00
    0.72441342287556942381E+00
    0.67996856439649611126E+00
    0.74258589396368257507E+00
    0.70095280242648927427E+00
    0.70834651776617585384E+00
    0.71904415890269457456E+00
    0.71852987056740280636E+00
    0.72019307052307668382E+00
    0.71579557502985091677E+00
    0.70479136081759841126E+00
    0.71903827476560744358E+00
    0.71862150842131300443E+00
    0.72029515999091187073E+00
    0.73167743285746700277E+00
    0.69499421126803184734E+00
    0.63748842129085192543E+00
    0.65786121163670785439E+00
    0.60448664169163301985E+00
    0.62829657305503050502E+00
    0.74071238334215394605E+00
    0.70004025078589604547E+00
    0.68501719336791011550E+00
    0.63575655622972016001E+00
    0.66334324048974069310E+00
    0.71688538326842365933E+00
    0.70799472024066956166E+00
    0.69626174233195614605E+00
    0.71691438857098732651E+00
    0.70629507136401270539E+00
    0.69117769044749366447E+00
    0.71304129451173492438E+00
    0.69241932998019217749E+00
    0.69474409156302874280E+00
    0.67579169697601182420E+00
    0.68981797961036739331E+00
    0.69598292224702529296E+00
    0.70925296863276088288E+00
    0.71749667068870448539E+00
    0.71054909179295411281E+00
    0.63672245276813688175E+00
    0.65458936633207509548E+00
    0.67560409082644845569E+00
    0.71058876091325451352E+00
    0.70926114143813256963E+00
    0.68071778581615904891E+00
    0.70405687135269934274E+00
    0.69280266198534690147E+00
    0.67097982148843238193E+00
    0.66754056640096659514E+00
    0.59810529914633991933E+00
    0.62425147914920020575E+00
    0.63915654466259030908E+00
    0.70498741484754656739E+00
    0.67862884260060218899E+00
    0.70162498478449175643E+00
    0.70907979838040291476E+00
    0.70842791438656771419E+00
    0.74080370298932463058E+00
    0.73180631846255361772E+00
    0.68103786398452181849E+00
    0.62144531677028158612E+00
    0.61801886372226411126E+00
    0.54732735121120856814E+00
    0.67337213965148245975E+00
    0.67796063857467281366E+00
    0.72136170813882516395E+00
    0.70125507251960617072E+00
    0.68716088492509874719E+00
    0.69604657393941382626E+00
    0.71649125683933934106E+00
    0.72179429354169044597E+00
    0.64765637754740135179E+00
    0.65332090392269703827E+00
    0.71493513040608758224E+00
    0.70562045667632999901E+00
    0.71985516586563125241E+00
    0.62838710726954571939E+00
    0.71782754580447971637E+00
    0.70714101327279199616E+00
    0.62314877040319172075E+00
    0.71467553381852733096E+00
    0.63323212220726765587E+00
    0.71777934471574689201E+00
    0.68320629226433760017E+00
    0.72645427573940146715E+00
    0.68340293099611049144E+00
    0.71839920399878054447E+00
    0.72391821349977458766E+00
    0.73576001514055622277E+00
    0.69295166935552154897E+00
    0.65673370890513060871E+00
    0.70546741122845069150E+00
    0.65590931577670352759E+00
    0.68837552729495943282E+00
    0.50502297756659708661E+00
    0.71872715028887124156E+00
    0.71032187458016537995E+00
    0.70102112470134625433E+00
    0.71748616437936862944E+00
    0.69100686794831278625E+00
    0.64788402509036979726E+00
    0.63884755145839144941E+00
    0.58986633547361000396E+00
    0.58994259261880033218E+00
    0.70741345980070224897E+00
    0.70958766461293953931E+00
    0.68772211956363449303E+00
    0.67196169016135842700E+00
    0.66873687275431858978E+00
    0.67977510684820618980E+00
    0.70508385401220385891E+00
    0.69837947055170035426E+00
    0.71099016135339920819E+00
    0.70324885221340238672E+00
    0.69383626235157003226E+00
    0.71114579974434399823E+00
    0.70776991928862686976E+00
    0.68703741823677733080E+00
    0.65984027078815421508E+00
    0.67347785138053661846E+00
    0.67899634483792059569E+00
    0.67764171156828945097E+00
    0.66820990574660621419E+00
    0.65173477428591142235E+00
    0.62514568549413973564E+00
    0.70864732510297767654E+00
    0.71070954524574148081E+00
    0.71011538577682253859E+00
    0.70498965645088296217E+00
    0.69350993526457893612E+00
    0.67134468916937406480E+00
    0.63814021857949210226E+00
