# vtk DataFile Version 3.0
LAPLACIEN  2D
ASCII
DATASET UNSTRUCTURED_GRID
 POINTS         391  float
  0.50371505999999999       0.50367786999999997        0.0000000000000000     
  0.29013556000000001       0.29014535000000002        0.0000000000000000     
  0.70165584999999997       0.71206597999999999        0.0000000000000000     
  0.70304188999999995       0.30176619999999998        0.0000000000000000     
  0.30920671999999999       0.71149227999999998        0.0000000000000000     
  0.79044983999999996       0.49884783999999999        0.0000000000000000     
  0.49102621000000002       0.20968644000000000        0.0000000000000000     
  0.49912957000000002       0.77208717000000004        0.0000000000000000     
  0.21724072999999999       0.48989389000000000        0.0000000000000000     
  0.83255933999999998       0.83046598000000005        0.0000000000000000     
  0.16646774000000000       0.17015694000000001        0.0000000000000000     
  0.83054514999999995       0.16736480000000001        0.0000000000000000     
  0.16953130999999999       0.83265739000000005        0.0000000000000000     
  0.42166445000000002       0.36345201999999999        0.0000000000000000     
  0.64462200999999997       0.56347807999999999        0.0000000000000000     
  0.35324633999999999       0.56311191000000005        0.0000000000000000     
  0.65456411000000003       0.84856860999999995        0.0000000000000000     
  0.35141477999999998       0.15563974000000000        0.0000000000000000     
  0.15290967000000000       0.35206625000000003        0.0000000000000000     
  0.82942241000000005       0.34936866000000000        0.0000000000000000     
  0.84390527000000004       0.64441694999999999        0.0000000000000000     
  0.63699174999999997       0.14284276000000001        0.0000000000000000     
  0.15620682999999999       0.64648446999999998        0.0000000000000000     
  0.36426062999999997       0.85756310999999996        0.0000000000000000     
  0.63489340999999999       0.40519052000000000        0.0000000000000000     
  0.52518872999999999       0.65957078000000002        0.0000000000000000     
  0.32158959999999998       0.42298103999999997        0.0000000000000000     
  0.58861710000000000       0.31711036999999997        0.0000000000000000     
  0.42078418000000001       0.69497151999999995        0.0000000000000000     
  0.48608786999999998       0.89334152000000000        0.0000000000000000     
   9.7084320000000002E-002  0.50000000000000000        0.0000000000000000     
  0.90291568000000000       0.50000000000000000        0.0000000000000000     
  0.51392453000000005       0.10668648999999999        0.0000000000000000     
  0.59792566999999996       0.73122754000000001        0.0000000000000000     
  0.74510058999999995       0.41124730999999998        0.0000000000000000     
  0.73212551999999997       0.90191560000000004        0.0000000000000000     
   9.7784830000000003E-002  0.26957329000000002        0.0000000000000000     
  0.26711221000000002        9.8671499999999995E-002   0.0000000000000000     
  0.90191560000000004       0.26787448000000003        0.0000000000000000     
  0.90118569000000004       0.73039821000000005        0.0000000000000000     
  0.73122947000000005        9.8017859999999998E-002   0.0000000000000000     
   9.8084400000000002E-002  0.73212551999999997        0.0000000000000000     
  0.26957329000000002       0.90221516999999996        0.0000000000000000     
  0.39283522999999998       0.25360379000000000        0.0000000000000000     
  0.74480864000000002       0.60495284999999999        0.0000000000000000     
  0.25505132000000003       0.60593640999999998        0.0000000000000000     
  0.52159297999999998       0.40671636000000000        0.0000000000000000     
  0.40768852000000000       0.47699891000000000        0.0000000000000000     
   9.1467049999999994E-002   9.1876959999999994E-002   0.0000000000000000     
  0.90842484999999995       0.90819225000000003        0.0000000000000000     
  0.90820104999999995        9.1566729999999999E-002   0.0000000000000000     
   9.1807449999999999E-002  0.90843574000000005        0.0000000000000000     
  0.27098960000000000       0.20527094000000001        0.0000000000000000     
  0.73457293999999995       0.79835387000000002        0.0000000000000000     
  0.79817773000000003       0.25713470999999999        0.0000000000000000     
  0.20747797000000001       0.72863946000000002        0.0000000000000000     
  0.20175195000000001       0.27583914999999998        0.0000000000000000     
  0.79603889000000005       0.72159035000000005        0.0000000000000000     
  0.71761666000000002       0.19748431999999999        0.0000000000000000     
  0.28462607000000001       0.80251899999999998        0.0000000000000000     
  0.69134598999999997       0.49261972999999998        0.0000000000000000     
  0.44720578999999999       0.58582935999999997        0.0000000000000000     
  0.24242269999999999       0.37228174000000003        0.0000000000000000     
  0.38265623999999998       0.93072131999999996        0.0000000000000000     
  0.60971754000000000       0.91988369000000003        0.0000000000000000     
   7.9163609999999995E-002  0.60979116000000000        0.0000000000000000     
  0.92010649000000000       0.61081183999999999        0.0000000000000000     
  0.61954008999999999        7.1530830000000004E-002   0.0000000000000000     
  0.91882012999999996       0.38917363999999999        0.0000000000000000     
  0.39086346000000000        8.0652249999999995E-002   0.0000000000000000     
   7.9183480000000001E-002  0.38966213000000000        0.0000000000000000     
  0.59114111999999996       0.49294315000000000        0.0000000000000000     
  0.63337980999999999       0.64485914000000000        0.0000000000000000     
  0.50012352000000004       0.29676539000000002        0.0000000000000000     
  0.82552601000000003       0.92753492000000004        0.0000000000000000     
  0.92774772999999999       0.82498556999999995        0.0000000000000000     
   7.1970870000000006E-002  0.17510291000000000        0.0000000000000000     
  0.17422821999999999        7.2635640000000001E-002   0.0000000000000000     
  0.82510813000000005        7.2134840000000006E-002   0.0000000000000000     
  0.92754665000000003       0.17446275999999999        0.0000000000000000     
  0.17501022999999999       0.92789951999999998        0.0000000000000000     
   7.2464680000000004E-002  0.82554053000000005        0.0000000000000000     
  0.30731587999999999       0.50885354999999999        0.0000000000000000     
  0.59033407999999998       0.22171178999999999        0.0000000000000000     
  0.40109191999999999       0.78725542000000004        0.0000000000000000     
  0.35420917000000002       0.63754104000000000        0.0000000000000000     
  0.15983976999999999       0.56665573000000002        0.0000000000000000     
  0.84108459999999996       0.56757886999999996        0.0000000000000000     
  0.83902096000000004       0.43344338999999998        0.0000000000000000     
  0.43230028999999998       0.16004268999999999        0.0000000000000000     
  0.57536027999999995       0.83041363999999995        0.0000000000000000     
  0.15771898000000001       0.42747892999999998        0.0000000000000000     
  0.34021692999999997       0.34221559000000001        0.0000000000000000     
  0.56002271999999997       0.57501117999999996        0.0000000000000000     
  0.65344329000000001       0.78147597999999996        0.0000000000000000     
   0.0000000000000000        0.0000000000000000        0.0000000000000000     
   1.0000000000000000        0.0000000000000000        0.0000000000000000     
   1.0000000000000000        1.0000000000000000        0.0000000000000000     
   0.0000000000000000        1.0000000000000000        0.0000000000000000     
  0.11111111000000000        0.0000000000000000        0.0000000000000000     
  0.22222222000000000        0.0000000000000000        0.0000000000000000     
  0.33333332999999998        0.0000000000000000        0.0000000000000000     
  0.44444444000000000        0.0000000000000000        0.0000000000000000     
  0.55555555999999995        0.0000000000000000        0.0000000000000000     
  0.66666667000000002        0.0000000000000000        0.0000000000000000     
  0.77777777999999997        0.0000000000000000        0.0000000000000000     
  0.88888889000000004        0.0000000000000000        0.0000000000000000     
   1.0000000000000000       0.11111111000000000        0.0000000000000000     
   1.0000000000000000       0.22222222000000000        0.0000000000000000     
   1.0000000000000000       0.33333332999999998        0.0000000000000000     
   1.0000000000000000       0.44444444000000000        0.0000000000000000     
   1.0000000000000000       0.55555555999999995        0.0000000000000000     
   1.0000000000000000       0.66666667000000002        0.0000000000000000     
   1.0000000000000000       0.77777777999999997        0.0000000000000000     
   1.0000000000000000       0.88888889000000004        0.0000000000000000     
  0.88888889000000004        1.0000000000000000        0.0000000000000000     
  0.77777777999999997        1.0000000000000000        0.0000000000000000     
  0.66666667000000002        1.0000000000000000        0.0000000000000000     
  0.55555555999999995        1.0000000000000000        0.0000000000000000     
  0.44444444000000000        1.0000000000000000        0.0000000000000000     
  0.33333332999999998        1.0000000000000000        0.0000000000000000     
  0.22222222000000000        1.0000000000000000        0.0000000000000000     
  0.11111111000000000        1.0000000000000000        0.0000000000000000     
   0.0000000000000000       0.11111111000000000        0.0000000000000000     
   0.0000000000000000       0.22222222000000000        0.0000000000000000     
[...]
 CELL_DATA         354
 SCALARS E float
 LOOKUP_TABLE default
    0.71075540796625880091E+00
    0.68053642124147795123E+00
    0.65480255984924029544E+00
    0.60454940618730179658E+00
    0.72239511870541339711E+00
    0.71239045484734553337E+00
    0.69172754531021496405E+00
    0.69127195291335186145E+00
    0.70448009068277162026E+00
    0.69234132402657122540E+00
    0.66347851461287099539E+00
    0.67898050952901134458E+00
    0.65501540206842789882E+00
    0.65959323939933978131E+00
    0.66801750266943726864E+00
    0.66367759998828668166E+00
    0.67704739584806006292E+00
    0.68658337597188190404E+00
    0.72805757876182553012E+00
    0.72092391620730078561E+00
    0.70472743457258668620E+00
    0.70658324631062474630E+00
    0.70108591446035728456E+00
    0.68856153588556434642E+00
    0.69563614594837164251E+00
    0.69071435346170828584E+00
    0.70779317064093616452E+00
    0.71376205231666789430E+00
    0.66691029179163707763E+00
    0.69295460952743803684E+00
    0.71361633090260667700E+00
    0.71251344460546794934E+00
    0.71220625961453731811E+00
    0.70423887956185415860E+00
    0.67596730497397461424E+00
    0.68974625079084972423E+00
    0.66669600491531066933E+00
    0.67182340679016938623E+00
    0.68828687817884492972E+00
    0.68072415103232142286E+00
    0.68988236496214383475E+00
    0.69146077301762864931E+00
    0.69401020711299921118E+00
    0.69331282514274472639E+00
    0.69348379003024729350E+00
    0.68665066087965831443E+00
    0.67318075848570579911E+00
    0.67787216491437418675E+00
    0.66387275779416909938E+00
    0.65031176770482690408E+00
    0.62173768777945315200E+00
    0.63228794353734341094E+00
    0.71550407737658816565E+00
    0.71742149738700744521E+00
    0.71882002415178147814E+00
    0.71829705370162444389E+00
    0.71413713139276802089E+00
    0.71482235366347035566E+00
    0.71451327097456951432E+00
    0.71578823180906114843E+00
    0.71128756116609836990E+00
    0.70725696080310340719E+00
    0.68979609419281673333E+00
    0.69903969667112175745E+00
    0.67866645888958920807E+00
    0.66312498022485977245E+00
    0.62384613347973849606E+00
    0.64217298078636764203E+00
    0.61664674197251878596E+00
    0.64849465945490292196E+00
    0.67052453558363289687E+00
    0.63259905146916184382E+00
    0.66441006335849217557E+00
    0.66100573387642946876E+00
    0.68755953862748786509E+00
    0.69412019934166313551E+00
    0.68956947230414078476E+00
    0.67212156709888348782E+00
    0.70614323805080636554E+00
    0.71507761812219194919E+00
    0.70472855112592658333E+00
    0.70576814159725043130E+00
    0.73816723433762987394E+00
    0.68077651380005010928E+00
    0.62642948163596723354E+00
    0.57778128647011173236E+00
    0.45604381676390781664E+00
    0.62504209767671303766E+00
    0.61680258237094065521E+00
    0.63007551295995523066E+00
    0.53411917186497204213E+00
    0.71619129577090145933E+00
    0.69722538459220717577E+00
    0.71538083496616322599E+00
    0.71965301535754999662E+00
    0.70742682220972508134E+00
    0.71290036272905465964E+00
    0.69784568908052213576E+00
    0.66009876547757295739E+00
    0.68883953105639161851E+00
    0.66810545992519443370E+00
    0.69322236123264024954E+00
    0.68382188911824903776E+00
    0.60995284618095313434E+00
    0.60418376066564427607E+00
    0.59625370364621332886E+00
    0.60107213574234741316E+00
    0.60695119603014213716E+00
    0.71892705630198183719E+00
    0.70433743053587161143E+00
    0.72691445525084230628E+00
    0.70169487438299160686E+00
    0.70400763660186860271E+00
    0.70266561662992865767E+00
    0.69686995109934291026E+00
    0.70659744051635742235E+00
    0.72018465796069419671E+00
    0.71798140204896865324E+00
    0.73912238151372100514E+00
    0.67205778016500794525E+00
    0.73538312752314438647E+00
    0.71023285669478797288E+00
    0.71613960327900838543E+00
    0.70175848141584673545E+00
    0.72154922311263192114E+00
    0.72207879476014158460E+00
    0.70013160440108979099E+00
    0.70836007078132501302E+00
    0.69788012009064648300E+00
    0.72519605340822712591E+00
    0.70252318851103845443E+00
    0.73681444375678983860E+00
    0.73273979074486150775E+00
    0.69348055454787849161E+00
    0.70219348069892628672E+00
    0.68522400778619485529E+00
    0.66696136968881125640E+00
    0.69397433507027295185E+00
    0.66450082722844117100E+00
    0.64931460232322235626E+00
    0.68210914933426958218E+00
    0.69159980009344523832E+00
    0.69490192281091656135E+00
    0.68952833633180599104E+00
    0.66813606910381928561E+00
    0.70807253388078661427E+00
    0.70590978217544431139E+00
    0.67355273097564549722E+00
    0.67750906469491822826E+00
    0.64831059247967726122E+00
    0.60841708865133070638E+00
    0.62155506272552363267E+00
    0.63298684755407141900E+00
    0.61096734586222845032E+00
    0.63474627291561347420E+00
    0.68770506990452973106E+00
    0.66454909562568698078E+00
    0.65443549955815072394E+00
    0.68974372151625817917E+00
    0.67827599413172123821E+00
    0.73213499721107289098E+00
    0.67898131557870489150E+00
    0.68675006913713543266E+00
    0.69237790934616594285E+00
    0.73239298810183994792E+00
    0.71868292223186003298E+00
    0.72497123136304075786E+00
    0.72116825104093229548E+00
    0.71946850611113721818E+00
    0.72126322478828253093E+00
    0.69112137468209644542E+00
    0.65336289999869345824E+00
    0.68504208996131099596E+00
    0.67705604695738341725E+00
    0.65379697659362723261E+00
    0.71057841612927585828E+00
    0.72097139598082837786E+00
    0.72177443741353586315E+00
    0.70300701058984638170E+00
    0.71219753340102998074E+00
    0.64618078844467508048E+00
    0.68141635411827361501E+00
    0.65515120844120044996E+00
    0.68695494275590962552E+00
    0.67836528954343700004E+00
    0.71251330084047870272E+00
    0.71795937509115204112E+00
    0.70554819315170624883E+00
    0.71855047435280039458E+00
    0.71983541444141885268E+00
    0.60821386724847936733E+00
    0.63156550629671359687E+00
    0.60190042356443007598E+00
    0.62805626841243777925E+00
    0.58639590257191342992E+00
    0.71792492089887305351E+00
    0.71411293684425958261E+00
    0.71785326158554307874E+00
    0.72347419668722134922E+00
    0.71799266847022591431E+00
    0.70692397946503382489E+00
    0.70664999131782457731E+00
    0.71416047652909475651E+00
    0.70465334114384903241E+00
    0.71308811005718175657E+00
    0.51621455368565438704E+00
    0.62446321860739728571E+00
    0.57942351616828335903E+00
    0.61813662401289914961E+00
    0.62102714977090545112E+00
    0.72294762245182031535E+00
    0.71892600627262193136E+00
    0.70059981136880122854E+00
    0.70423811784248235845E+00
    0.68884008739085400563E+00
    0.66638707424872645202E+00
    0.68643177798624988029E+00
    0.68528448167522071355E+00
    0.67023521971140376241E+00
    0.48431598092210204065E+00
    0.42346488099525453341E+00
    0.40061107761133007976E+00
    0.72449758030596034253E+00
    0.68553149670495872048E+00
    0.74070253415258380247E+00
    0.70223983268016065828E+00
    0.70963704049650022654E+00
    0.72036721123221403307E+00
    0.71980956148978769704E+00
    0.72141137264854693356E+00
    0.71825356042188348571E+00
    0.70870044991317371341E+00
    0.72004463060562540200E+00
    0.71943974214705819215E+00
    0.72114140285609573677E+00
    0.73181983897235136638E+00
    0.69626891587060757427E+00
    0.63839985054955250554E+00
    0.65834637652545058284E+00
    0.60410060835870638130E+00
    0.62926434168741096631E+00
    0.74031268545046136076E+00
    0.70443522319177154234E+00
    0.68686892669538002210E+00
    0.63634320671035216055E+00
    0.66349968965644878782E+00
    0.71812201252062357604E+00
    0.70915601304730613297E+00
    0.69754404892659616078E+00
    0.71509116981299858384E+00
    0.71005527757935804622E+00
    0.69573332533260012767E+00
    0.71389616891002183330E+00
    0.69381235016620801392E+00
    0.69357425243355530498E+00
    0.67625217235992951537E+00
    0.69158759427051941238E+00
    0.69769094822648003440E+00
    0.71212897463853541691E+00
    0.71981680562979022397E+00
    0.71194911704334040703E+00
    0.63760764420070936698E+00
    0.65516091906027951186E+00
    0.67650206975135884768E+00
    0.71175628417960135064E+00
    0.71038791583537219676E+00
    0.68188899777873834829E+00
    0.70521595971033756989E+00
    0.69390239681909082758E+00
    0.67214319246816456310E+00
    0.66770062755951520295E+00
    0.59755162823389362803E+00
    0.62534408095788518445E+00
    0.64009655306708224121E+00
    0.70377542242430957131E+00
    0.67914410265320512838E+00
    0.70327030414605684605E+00
    0.71045784657109078974E+00
    0.71144804067053857288E+00
    0.74053851354635547022E+00
    0.73052114325906902792E+00
    0.68359353077678108868E+00
    0.62161668563465366510E+00
    0.61823147974146896999E+00
    0.54784113316401239491E+00
    0.67414884306105626877E+00
    0.67895222365595087055E+00
    0.72284535712610942237E+00
    0.70470068327875301506E+00
    0.68827277712991952185E+00
    0.69712881955746841545E+00
    0.71690657701208881925E+00
    0.72208184807778563741E+00
    0.64879629091968449295E+00
    0.65436149373256990991E+00
    0.71562464512398826777E+00
    0.70880389615368533107E+00
    0.72238555906303147935E+00
    0.62918373373615488209E+00
    0.71901899330961838164E+00
    0.70828991353752690507E+00
    0.62199348799441633862E+00
    0.71629251810311367343E+00
    0.63392402784129386895E+00
    0.71769874717203541170E+00
    0.68387201619259474494E+00
    0.72504816673041017072E+00
    0.68416537893753159860E+00
    0.71952555509960181013E+00
    0.72501438444071508727E+00
    0.73445599308336728672E+00
    0.69404817243254279813E+00
    0.65748940594294513762E+00
    0.70793043582700054817E+00
    0.65602626695083476882E+00
    0.68940277481285539007E+00
    0.50765586314214794506E+00
    0.72088588828592314872E+00
    0.71156744847162123335E+00
    0.70248044318640734396E+00
    0.71841317712150165598E+00
    0.69459916054426895649E+00
    0.64886360637599005408E+00
    0.63972153767892370180E+00
    0.59025225380707557754E+00
    0.59073209604263265948E+00
    0.71076026348792842313E+00
    0.71090415388905447980E+00
    0.68926995252168676842E+00
    0.67343246328975858717E+00
    0.67016084786821428221E+00
    0.68124685000335527540E+00
    0.70609741351919208530E+00
    0.69983430387237666181E+00
    0.71178738424076015701E+00
    0.70409302015068830904E+00
    0.69612821084229103974E+00
    0.71372061853346357996E+00
    0.70927668763985485256E+00
    0.68822608677792829202E+00
    0.66090989870939387263E+00
    0.67468081602781682093E+00
    0.68021697117406998423E+00
    0.67888064462782971020E+00
    0.66933650094962438004E+00
    0.65273529433671151345E+00
    0.62585153898581291632E+00
    0.71016013999560556602E+00
    0.71229459854802257279E+00
    0.71165970057752758748E+00
    0.70648160878884447289E+00
    0.69484254689067392885E+00
    0.67251983374986146202E+00
    0.63898382765921335480E+00
