# vtk DataFile Version 3.0
LAPLACIEN  2D
ASCII
DATASET UNSTRUCTURED_GRID
 POINTS         391  float
  0.50371505999999999       0.50367786999999997        0.0000000000000000     
  0.29013556000000001       0.29014535000000002        0.0000000000000000     
  0.70165584999999997       0.71206597999999999        0.0000000000000000     
  0.70304188999999995       0.30176619999999998        0.0000000000000000     
  0.30920671999999999       0.71149227999999998        0.0000000000000000     
  0.79044983999999996       0.49884783999999999        0.0000000000000000     
  0.49102621000000002       0.20968644000000000        0.0000000000000000     
  0.49912957000000002       0.77208717000000004        0.0000000000000000     
  0.21724072999999999       0.48989389000000000        0.0000000000000000     
  0.83255933999999998       0.83046598000000005        0.0000000000000000     
  0.16646774000000000       0.17015694000000001        0.0000000000000000     
  0.83054514999999995       0.16736480000000001        0.0000000000000000     
  0.16953130999999999       0.83265739000000005        0.0000000000000000     
  0.42166445000000002       0.36345201999999999        0.0000000000000000     
  0.64462200999999997       0.56347807999999999        0.0000000000000000     
  0.35324633999999999       0.56311191000000005        0.0000000000000000     
  0.65456411000000003       0.84856860999999995        0.0000000000000000     
  0.35141477999999998       0.15563974000000000        0.0000000000000000     
  0.15290967000000000       0.35206625000000003        0.0000000000000000     
  0.82942241000000005       0.34936866000000000        0.0000000000000000     
  0.84390527000000004       0.64441694999999999        0.0000000000000000     
  0.63699174999999997       0.14284276000000001        0.0000000000000000     
  0.15620682999999999       0.64648446999999998        0.0000000000000000     
  0.36426062999999997       0.85756310999999996        0.0000000000000000     
  0.63489340999999999       0.40519052000000000        0.0000000000000000     
  0.52518872999999999       0.65957078000000002        0.0000000000000000     
  0.32158959999999998       0.42298103999999997        0.0000000000000000     
  0.58861710000000000       0.31711036999999997        0.0000000000000000     
  0.42078418000000001       0.69497151999999995        0.0000000000000000     
  0.48608786999999998       0.89334152000000000        0.0000000000000000     
   9.7084320000000002E-002  0.50000000000000000        0.0000000000000000     
  0.90291568000000000       0.50000000000000000        0.0000000000000000     
  0.51392453000000005       0.10668648999999999        0.0000000000000000     
  0.59792566999999996       0.73122754000000001        0.0000000000000000     
  0.74510058999999995       0.41124730999999998        0.0000000000000000     
  0.73212551999999997       0.90191560000000004        0.0000000000000000     
   9.7784830000000003E-002  0.26957329000000002        0.0000000000000000     
  0.26711221000000002        9.8671499999999995E-002   0.0000000000000000     
  0.90191560000000004       0.26787448000000003        0.0000000000000000     
  0.90118569000000004       0.73039821000000005        0.0000000000000000     
  0.73122947000000005        9.8017859999999998E-002   0.0000000000000000     
   9.8084400000000002E-002  0.73212551999999997        0.0000000000000000     
  0.26957329000000002       0.90221516999999996        0.0000000000000000     
  0.39283522999999998       0.25360379000000000        0.0000000000000000     
  0.74480864000000002       0.60495284999999999        0.0000000000000000     
  0.25505132000000003       0.60593640999999998        0.0000000000000000     
  0.52159297999999998       0.40671636000000000        0.0000000000000000     
  0.40768852000000000       0.47699891000000000        0.0000000000000000     
   9.1467049999999994E-002   9.1876959999999994E-002   0.0000000000000000     
  0.90842484999999995       0.90819225000000003        0.0000000000000000     
  0.90820104999999995        9.1566729999999999E-002   0.0000000000000000     
   9.1807449999999999E-002  0.90843574000000005        0.0000000000000000     
  0.27098960000000000       0.20527094000000001        0.0000000000000000     
  0.73457293999999995       0.79835387000000002        0.0000000000000000     
  0.79817773000000003       0.25713470999999999        0.0000000000000000     
  0.20747797000000001       0.72863946000000002        0.0000000000000000     
  0.20175195000000001       0.27583914999999998        0.0000000000000000     
  0.79603889000000005       0.72159035000000005        0.0000000000000000     
  0.71761666000000002       0.19748431999999999        0.0000000000000000     
  0.28462607000000001       0.80251899999999998        0.0000000000000000     
  0.69134598999999997       0.49261972999999998        0.0000000000000000     
  0.44720578999999999       0.58582935999999997        0.0000000000000000     
  0.24242269999999999       0.37228174000000003        0.0000000000000000     
  0.38265623999999998       0.93072131999999996        0.0000000000000000     
  0.60971754000000000       0.91988369000000003        0.0000000000000000     
   7.9163609999999995E-002  0.60979116000000000        0.0000000000000000     
  0.92010649000000000       0.61081183999999999        0.0000000000000000     
  0.61954008999999999        7.1530830000000004E-002   0.0000000000000000     
  0.91882012999999996       0.38917363999999999        0.0000000000000000     
  0.39086346000000000        8.0652249999999995E-002   0.0000000000000000     
   7.9183480000000001E-002  0.38966213000000000        0.0000000000000000     
  0.59114111999999996       0.49294315000000000        0.0000000000000000     
  0.63337980999999999       0.64485914000000000        0.0000000000000000     
  0.50012352000000004       0.29676539000000002        0.0000000000000000     
  0.82552601000000003       0.92753492000000004        0.0000000000000000     
  0.92774772999999999       0.82498556999999995        0.0000000000000000     
   7.1970870000000006E-002  0.17510291000000000        0.0000000000000000     
  0.17422821999999999        7.2635640000000001E-002   0.0000000000000000     
  0.82510813000000005        7.2134840000000006E-002   0.0000000000000000     
  0.92754665000000003       0.17446275999999999        0.0000000000000000     
  0.17501022999999999       0.92789951999999998        0.0000000000000000     
   7.2464680000000004E-002  0.82554053000000005        0.0000000000000000     
  0.30731587999999999       0.50885354999999999        0.0000000000000000     
  0.59033407999999998       0.22171178999999999        0.0000000000000000     
  0.40109191999999999       0.78725542000000004        0.0000000000000000     
  0.35420917000000002       0.63754104000000000        0.0000000000000000     
  0.15983976999999999       0.56665573000000002        0.0000000000000000     
  0.84108459999999996       0.56757886999999996        0.0000000000000000     
  0.83902096000000004       0.43344338999999998        0.0000000000000000     
  0.43230028999999998       0.16004268999999999        0.0000000000000000     
  0.57536027999999995       0.83041363999999995        0.0000000000000000     
  0.15771898000000001       0.42747892999999998        0.0000000000000000     
  0.34021692999999997       0.34221559000000001        0.0000000000000000     
  0.56002271999999997       0.57501117999999996        0.0000000000000000     
  0.65344329000000001       0.78147597999999996        0.0000000000000000     
   0.0000000000000000        0.0000000000000000        0.0000000000000000     
   1.0000000000000000        0.0000000000000000        0.0000000000000000     
   1.0000000000000000        1.0000000000000000        0.0000000000000000     
   0.0000000000000000        1.0000000000000000        0.0000000000000000     
  0.11111111000000000        0.0000000000000000        0.0000000000000000     
  0.22222222000000000        0.0000000000000000        0.0000000000000000     
  0.33333332999999998        0.0000000000000000        0.0000000000000000     
  0.44444444000000000        0.0000000000000000        0.0000000000000000     
  0.55555555999999995        0.0000000000000000        0.0000000000000000     
  0.66666667000000002        0.0000000000000000        0.0000000000000000     
  0.77777777999999997        0.0000000000000000        0.0000000000000000     
  0.88888889000000004        0.0000000000000000        0.0000000000000000     
   1.0000000000000000       0.11111111000000000        0.0000000000000000     
   1.0000000000000000       0.22222222000000000        0.0000000000000000     
   1.0000000000000000       0.33333332999999998        0.0000000000000000     
   1.0000000000000000       0.44444444000000000        0.0000000000000000     
   1.0000000000000000       0.55555555999999995        0.0000000000000000     
   1.0000000000000000       0.66666667000000002        0.0000000000000000     
   1.0000000000000000       0.77777777999999997        0.0000000000000000     
   1.0000000000000000       0.88888889000000004        0.0000000000000000     
  0.88888889000000004        1.0000000000000000        0.0000000000000000     
  0.77777777999999997        1.0000000000000000        0.0000000000000000     
  0.66666667000000002        1.0000000000000000        0.0000000000000000     
  0.55555555999999995        1.0000000000000000        0.0000000000000000     
  0.44444444000000000        1.0000000000000000        0.0000000000000000     
  0.33333332999999998        1.0000000000000000        0.0000000000000000     
  0.22222222000000000        1.0000000000000000        0.0000000000000000     
  0.11111111000000000        1.0000000000000000        0.0000000000000000     
   0.0000000000000000       0.11111111000000000        0.0000000000000000     
   0.0000000000000000       0.22222222000000000        0.0000000000000000     
[...]
 CELL_DATA         354
 SCALARS E float
 LOOKUP_TABLE default
    0.71941151975089212556E+00
    0.71887903569510402946E+00
    0.65914360118672832289E+00
    0.60353776180364238080E+00
    0.74343715745661054228E+00
    0.73919374188323128116E+00
    0.71328597995492071249E+00
    0.73093151646074983052E+00
    0.70543992689276335817E+00
    0.69260225947779541222E+00
    0.64473177149226246208E+00
    0.66722658391528066879E+00
    0.64323836298001002554E+00
    0.64267813782968352676E+00
    0.65531215040271750816E+00
    0.64797695401362220835E+00
    0.66794409490710926480E+00
    0.69537159540549420278E+00
    0.73048085214588698300E+00
    0.71453332727771812216E+00
    0.72393373953559692069E+00
    0.71967984280877439485E+00
    0.70040510421757262716E+00
    0.71037386168706240230E+00
    0.69190407738688808337E+00
    0.69877430401537588001E+00
    0.71521332853903929472E+00
    0.70963052110980329168E+00
    0.71725826507988565961E+00
    0.72689465029576960653E+00
    0.73032878734973027957E+00
    0.73231993845230369811E+00
    0.72058677304977059030E+00
    0.71549337867671392033E+00
    0.69364447815774010753E+00
    0.70537434292631506771E+00
    0.67463148380476734012E+00
    0.68202598050952922826E+00
    0.69392327354159455410E+00
    0.68762958718018951654E+00
    0.69601728491114078778E+00
    0.69901281822141281275E+00
    0.69890540585670701823E+00
    0.70015228606356905150E+00
    0.69744605803007608813E+00
    0.69123568720845396385E+00
    0.67862472703400189555E+00
    0.68411343193698137544E+00
    0.66782076753329100427E+00
    0.65459230552219560550E+00
    0.62888278965220356653E+00
    0.64174766460893972742E+00
    0.72602091484767261598E+00
    0.72899144158336115495E+00
    0.72552474552920109829E+00
    0.72690528238663609795E+00
    0.72177419813356968881E+00
    0.72399368511003747706E+00
    0.72532393571871400795E+00
    0.72662311827615888582E+00
    0.72008556206326657101E+00
    0.71727842541334196902E+00
    0.69911844295801772731E+00
    0.71054032250557042083E+00
    0.68413450646367224284E+00
    0.66975933820996247370E+00
    0.63714000795188119319E+00
    0.65321015514581626249E+00
    0.62592293214673588864E+00
    0.66727857079264074613E+00
    0.70290550390332318109E+00
    0.64468632349551757699E+00
    0.69062990526857326312E+00
    0.65991500078557674414E+00
    0.69713594575130677367E+00
    0.72413224604688120056E+00
    0.72221021115141736946E+00
    0.68989134860037371055E+00
    0.73359557651762030694E+00
    0.72328498152871856242E+00
    0.74703242374123701719E+00
    0.73950184464952684049E+00
    0.73362856389219266440E+00
    0.73270606265123083833E+00
    0.64665589321300254166E+00
    0.64607543550385648778E+00
    0.71352532557489456444E+00
    0.63204344415412816449E+00
    0.64189668924495757452E+00
    0.61992338347778375152E+00
    0.66295454008812981783E+00
    0.75825824989263301834E+00
    0.75390126742542495908E+00
    0.74960877468137077084E+00
    0.74657803736762218261E+00
    0.75106415520954383780E+00
    0.75851200533371165857E+00
    0.72190876126461744899E+00
    0.66976835643042320623E+00
    0.70629352445745396949E+00
    0.69051523835647188321E+00
    0.70219022331092095790E+00
    0.70335539637904775923E+00
    0.64586478467032581996E+00
    0.64698654494837126716E+00
    0.61947624995046424168E+00
    0.61400568424455514993E+00
    0.62954921947454556275E+00
    0.74169553165458235178E+00
    0.74172587264430345222E+00
    0.75680708871873503263E+00
    0.74295774025135985497E+00
    0.75339896529839878170E+00
    0.74683329380427188049E+00
    0.73300049277360768141E+00
    0.74850419649350397044E+00
    0.74377652211020339745E+00
    0.72556339703034000710E+00
    0.74027227861650601870E+00
    0.73293053427176368952E+00
    0.73397282800335850173E+00
    0.73476760916855199390E+00
    0.74119880899951096076E+00
    0.72068227853589617027E+00
    0.75267267417208416624E+00
    0.75183474881315082161E+00
    0.71577642224003379390E+00
    0.72649456946724422224E+00
    0.74026177140513094166E+00
    0.73207926302124215479E+00
    0.74205819777574155705E+00
    0.74019495988641137441E+00
    0.74483353359354853573E+00
    0.73479611794279109382E+00
    0.73296987045065398192E+00
    0.70266331747438037780E+00
    0.68082134693431395345E+00
    0.71042168098092939310E+00
    0.69383083374390697173E+00
    0.67914892446389674152E+00
    0.68757236731493476256E+00
    0.69445603940426670064E+00
    0.71549154561210914771E+00
    0.70868196991403309415E+00
    0.68353949408892167305E+00
    0.73678717487460954061E+00
    0.73338490617760510037E+00
    0.68615606725542022115E+00
    0.69092387756510598162E+00
    0.66161883216375150241E+00
    0.63619387100325797135E+00
    0.64059307744275684193E+00
    0.65906704225327628066E+00
    0.63269036858293492553E+00
    0.64486726252568438156E+00
    0.72465917015676417634E+00
    0.68042019392935981781E+00
    0.65931848885325328169E+00
    0.72078429722947090497E+00
    0.69652732054404009610E+00
    0.75246076164977149237E+00
    0.68279638403091669208E+00
    0.70482391160426605126E+00
    0.72204753283698897004E+00
    0.73376689940258932321E+00
    0.75272566767141158017E+00
    0.75354716799897558666E+00
    0.75477410524283905513E+00
    0.74512655515781311966E+00
    0.74858486178677685619E+00
    0.73144891173347681423E+00
    0.66959251056071544816E+00
    0.70401139739678653129E+00
    0.71503951785935182528E+00
    0.67018478904969225329E+00
    0.75854149099359302610E+00
    0.73536662192198121168E+00
    0.72373881205048185006E+00
    0.76120173475877428437E+00
    0.74183315711285335858E+00
    0.65189091950170752199E+00
    0.70974633143789223055E+00
    0.67134127630934636866E+00
    0.71704312745630283121E+00
    0.68265423226823318537E+00
    0.76154464554404255328E+00
    0.72713191028115820025E+00
    0.74459480942988676144E+00
    0.75827362131335274142E+00
    0.73257823550828060633E+00
    0.63603926785722186832E+00
    0.67380072848869865254E+00
    0.62665542810043739497E+00
    0.64431198291170632686E+00
    0.63035917961930920672E+00
    0.74904254271067383097E+00
    0.73979405160211131331E+00
    0.74176793883825020703E+00
    0.75450989882029206868E+00
    0.74501673267696988390E+00
    0.72728395915039323327E+00
    0.73421458199625511121E+00
    0.73376681414532174408E+00
    0.72454858257100340779E+00
    0.73744890109920069321E+00
    0.67215038377431335359E+00
    0.62216446438717865064E+00
    0.63322217148272397225E+00
    0.64008150518195272571E+00
    0.62942646406459679120E+00
    0.73683906564482604118E+00
    0.73190884157866453741E+00
    0.71601403782136019416E+00
    0.72612342202778223932E+00
    0.71351698514227779313E+00
    0.67513868617883732171E+00
    0.72479509105068506969E+00
    0.70801341627928549016E+00
    0.69078953802358467051E+00
    0.68075415631988434040E+00
    0.71705682696091888051E+00
    0.73846644937067051906E+00
    0.72369936669149947939E+00
    0.74677120362914894969E+00
    0.74027377123574888973E+00
    0.71440697614215864508E+00
    0.73857307026259633176E+00
    0.75341860137403160458E+00
    0.75237576179234544327E+00
    0.74805508356136263259E+00
    0.75628211328404071345E+00
    0.74898276293273302606E+00
    0.76178512693608091411E+00
    0.74413776389736729922E+00
    0.73677477996657680936E+00
    0.73084900351968828947E+00
    0.73704194078291807024E+00
    0.63342311989829158669E+00
    0.68625733936230770560E+00
    0.66371195252936188158E+00
    0.66847994264689747368E+00
    0.73376463717206863446E+00
    0.74675266533322481877E+00
    0.73770894161329891858E+00
    0.65387580028610725602E+00
    0.65860175150163413615E+00
    0.74907598421363097430E+00
    0.74087833034025574186E+00
    0.71403373132864866868E+00
    0.74756600433538689110E+00
    0.75570795740547969110E+00
    0.73887021867442403966E+00
    0.73114647374766872368E+00
    0.73427299031914572414E+00
    0.72508229268473156637E+00
    0.70738686969817765604E+00
    0.71913962962348965124E+00
    0.70459737451122705920E+00
    0.75561789425726355596E+00
    0.76090143582639879760E+00
    0.72726751996528715694E+00
    0.67338618558718466023E+00
    0.68982821255077575451E+00
    0.67912302508239252852E+00
    0.74016140368631044844E+00
    0.74159070873023891224E+00
    0.69469868412268620528E+00
    0.73102142424623994810E+00
    0.72052505875047445638E+00
    0.68519680398648397102E+00
    0.67247482088515431187E+00
    0.65514369394239513333E+00
    0.64538983968441243633E+00
    0.64293376216666264789E+00
    0.72862199936036720072E+00
    0.71173541036951637473E+00
    0.72645507475350767912E+00
    0.71273335774609714033E+00
    0.74165263030264139132E+00
    0.75611258334791486835E+00
    0.75350126530856154083E+00
    0.73663464386362742520E+00
    0.65104947822671899171E+00
    0.61660987414631995840E+00
    0.65382643288439823426E+00
    0.69112836035552627223E+00
    0.68524141165170138201E+00
    0.74634446177656532662E+00
    0.74734023846390473800E+00
    0.70863125927904302426E+00
    0.71859163981610796323E+00
    0.72490751840182299226E+00
    0.72853034581436748596E+00
    0.66854753657428023228E+00
    0.67328692021659208855E+00
    0.73196420036366927064E+00
    0.75135349126538619746E+00
    0.75305504007267165534E+00
    0.65469824332621384677E+00
    0.74637963280539754152E+00
    0.72494603217182307375E+00
    0.60056017109655845942E+00
    0.73741507341112644269E+00
    0.64964204214552179195E+00
    0.71714578718172949934E+00
    0.70801954105348330337E+00
    0.71534746051994757554E+00
    0.71077421934480000676E+00
    0.75086347084557003573E+00
    0.75218713313531271325E+00
    0.74571946802761557294E+00
    0.72452487612901572689E+00
    0.69284696599385608984E+00
    0.75852058177180059495E+00
    0.67183899058027329865E+00
    0.72043069432251716222E+00
    0.65783316549344572621E+00
    0.74849400524505638188E+00
    0.72691569914181841661E+00
    0.70603980775774233258E+00
    0.72801575883668512290E+00
    0.71839963769888592893E+00
    0.65944266511355797977E+00
    0.63854741088064881360E+00
    0.58594278285224410396E+00
    0.59451503132919514272E+00
    0.73234292335652817485E+00
    0.70552474387900765418E+00
    0.67822872859004723622E+00
    0.65084394188936545156E+00
    0.64268132573269243224E+00
    0.66076169054333400155E+00
    0.70427655182660742206E+00
    0.70941182690109239051E+00
    0.69641804126427864219E+00
    0.70046707195125224032E+00
    0.71159472951416635755E+00
    0.72049951733676542709E+00
    0.71524030930131454742E+00
    0.69949106175058073376E+00
    0.66195430754938344720E+00
    0.67264666756419111415E+00
    0.67805597192039734900E+00
    0.67611183745625003105E+00
    0.66735655950431693739E+00
    0.64969934780952609543E+00
    0.62472131091204730069E+00
    0.71338821571338750793E+00
    0.71193708702591118609E+00
    0.71144370611480400868E+00
    0.70796067419203911886E+00
    0.69700998951469195219E+00
    0.67340262408530315863E+00
    0.64261500103958224539E+00
