# vtk DataFile Version 3.0
LAPLACIEN  2D
ASCII
DATASET UNSTRUCTURED_GRID
 POINTS         391  float
  0.50371505999999999       0.50367786999999997        0.0000000000000000     
  0.29013556000000001       0.29014535000000002        0.0000000000000000     
  0.70165584999999997       0.71206597999999999        0.0000000000000000     
  0.70304188999999995       0.30176619999999998        0.0000000000000000     
  0.30920671999999999       0.71149227999999998        0.0000000000000000     
  0.79044983999999996       0.49884783999999999        0.0000000000000000     
  0.49102621000000002       0.20968644000000000        0.0000000000000000     
  0.49912957000000002       0.77208717000000004        0.0000000000000000     
  0.21724072999999999       0.48989389000000000        0.0000000000000000     
  0.83255933999999998       0.83046598000000005        0.0000000000000000     
  0.16646774000000000       0.17015694000000001        0.0000000000000000     
  0.83054514999999995       0.16736480000000001        0.0000000000000000     
  0.16953130999999999       0.83265739000000005        0.0000000000000000     
  0.42166445000000002       0.36345201999999999        0.0000000000000000     
  0.64462200999999997       0.56347807999999999        0.0000000000000000     
  0.35324633999999999       0.56311191000000005        0.0000000000000000     
  0.65456411000000003       0.84856860999999995        0.0000000000000000     
  0.35141477999999998       0.15563974000000000        0.0000000000000000     
  0.15290967000000000       0.35206625000000003        0.0000000000000000     
  0.82942241000000005       0.34936866000000000        0.0000000000000000     
  0.84390527000000004       0.64441694999999999        0.0000000000000000     
  0.63699174999999997       0.14284276000000001        0.0000000000000000     
  0.15620682999999999       0.64648446999999998        0.0000000000000000     
  0.36426062999999997       0.85756310999999996        0.0000000000000000     
  0.63489340999999999       0.40519052000000000        0.0000000000000000     
  0.52518872999999999       0.65957078000000002        0.0000000000000000     
  0.32158959999999998       0.42298103999999997        0.0000000000000000     
  0.58861710000000000       0.31711036999999997        0.0000000000000000     
  0.42078418000000001       0.69497151999999995        0.0000000000000000     
  0.48608786999999998       0.89334152000000000        0.0000000000000000     
   9.7084320000000002E-002  0.50000000000000000        0.0000000000000000     
  0.90291568000000000       0.50000000000000000        0.0000000000000000     
  0.51392453000000005       0.10668648999999999        0.0000000000000000     
  0.59792566999999996       0.73122754000000001        0.0000000000000000     
  0.74510058999999995       0.41124730999999998        0.0000000000000000     
  0.73212551999999997       0.90191560000000004        0.0000000000000000     
   9.7784830000000003E-002  0.26957329000000002        0.0000000000000000     
  0.26711221000000002        9.8671499999999995E-002   0.0000000000000000     
  0.90191560000000004       0.26787448000000003        0.0000000000000000     
  0.90118569000000004       0.73039821000000005        0.0000000000000000     
  0.73122947000000005        9.8017859999999998E-002   0.0000000000000000     
   9.8084400000000002E-002  0.73212551999999997        0.0000000000000000     
  0.26957329000000002       0.90221516999999996        0.0000000000000000     
  0.39283522999999998       0.25360379000000000        0.0000000000000000     
  0.74480864000000002       0.60495284999999999        0.0000000000000000     
  0.25505132000000003       0.60593640999999998        0.0000000000000000     
  0.52159297999999998       0.40671636000000000        0.0000000000000000     
  0.40768852000000000       0.47699891000000000        0.0000000000000000     
   9.1467049999999994E-002   9.1876959999999994E-002   0.0000000000000000     
  0.90842484999999995       0.90819225000000003        0.0000000000000000     
  0.90820104999999995        9.1566729999999999E-002   0.0000000000000000     
   9.1807449999999999E-002  0.90843574000000005        0.0000000000000000     
  0.27098960000000000       0.20527094000000001        0.0000000000000000     
  0.73457293999999995       0.79835387000000002        0.0000000000000000     
  0.79817773000000003       0.25713470999999999        0.0000000000000000     
  0.20747797000000001       0.72863946000000002        0.0000000000000000     
  0.20175195000000001       0.27583914999999998        0.0000000000000000     
  0.79603889000000005       0.72159035000000005        0.0000000000000000     
  0.71761666000000002       0.19748431999999999        0.0000000000000000     
  0.28462607000000001       0.80251899999999998        0.0000000000000000     
  0.69134598999999997       0.49261972999999998        0.0000000000000000     
  0.44720578999999999       0.58582935999999997        0.0000000000000000     
  0.24242269999999999       0.37228174000000003        0.0000000000000000     
  0.38265623999999998       0.93072131999999996        0.0000000000000000     
  0.60971754000000000       0.91988369000000003        0.0000000000000000     
   7.9163609999999995E-002  0.60979116000000000        0.0000000000000000     
  0.92010649000000000       0.61081183999999999        0.0000000000000000     
  0.61954008999999999        7.1530830000000004E-002   0.0000000000000000     
  0.91882012999999996       0.38917363999999999        0.0000000000000000     
  0.39086346000000000        8.0652249999999995E-002   0.0000000000000000     
   7.9183480000000001E-002  0.38966213000000000        0.0000000000000000     
  0.59114111999999996       0.49294315000000000        0.0000000000000000     
  0.63337980999999999       0.64485914000000000        0.0000000000000000     
  0.50012352000000004       0.29676539000000002        0.0000000000000000     
  0.82552601000000003       0.92753492000000004        0.0000000000000000     
  0.92774772999999999       0.82498556999999995        0.0000000000000000     
   7.1970870000000006E-002  0.17510291000000000        0.0000000000000000     
  0.17422821999999999        7.2635640000000001E-002   0.0000000000000000     
  0.82510813000000005        7.2134840000000006E-002   0.0000000000000000     
  0.92754665000000003       0.17446275999999999        0.0000000000000000     
  0.17501022999999999       0.92789951999999998        0.0000000000000000     
   7.2464680000000004E-002  0.82554053000000005        0.0000000000000000     
  0.30731587999999999       0.50885354999999999        0.0000000000000000     
  0.59033407999999998       0.22171178999999999        0.0000000000000000     
  0.40109191999999999       0.78725542000000004        0.0000000000000000     
  0.35420917000000002       0.63754104000000000        0.0000000000000000     
  0.15983976999999999       0.56665573000000002        0.0000000000000000     
  0.84108459999999996       0.56757886999999996        0.0000000000000000     
  0.83902096000000004       0.43344338999999998        0.0000000000000000     
  0.43230028999999998       0.16004268999999999        0.0000000000000000     
  0.57536027999999995       0.83041363999999995        0.0000000000000000     
  0.15771898000000001       0.42747892999999998        0.0000000000000000     
  0.34021692999999997       0.34221559000000001        0.0000000000000000     
  0.56002271999999997       0.57501117999999996        0.0000000000000000     
  0.65344329000000001       0.78147597999999996        0.0000000000000000     
   0.0000000000000000        0.0000000000000000        0.0000000000000000     
   1.0000000000000000        0.0000000000000000        0.0000000000000000     
   1.0000000000000000        1.0000000000000000        0.0000000000000000     
   0.0000000000000000        1.0000000000000000        0.0000000000000000     
  0.11111111000000000        0.0000000000000000        0.0000000000000000     
  0.22222222000000000        0.0000000000000000        0.0000000000000000     
  0.33333332999999998        0.0000000000000000        0.0000000000000000     
  0.44444444000000000        0.0000000000000000        0.0000000000000000     
  0.55555555999999995        0.0000000000000000        0.0000000000000000     
  0.66666667000000002        0.0000000000000000        0.0000000000000000     
  0.77777777999999997        0.0000000000000000        0.0000000000000000     
  0.88888889000000004        0.0000000000000000        0.0000000000000000     
   1.0000000000000000       0.11111111000000000        0.0000000000000000     
   1.0000000000000000       0.22222222000000000        0.0000000000000000     
   1.0000000000000000       0.33333332999999998        0.0000000000000000     
   1.0000000000000000       0.44444444000000000        0.0000000000000000     
   1.0000000000000000       0.55555555999999995        0.0000000000000000     
   1.0000000000000000       0.66666667000000002        0.0000000000000000     
   1.0000000000000000       0.77777777999999997        0.0000000000000000     
   1.0000000000000000       0.88888889000000004        0.0000000000000000     
  0.88888889000000004        1.0000000000000000        0.0000000000000000     
  0.77777777999999997        1.0000000000000000        0.0000000000000000     
  0.66666667000000002        1.0000000000000000        0.0000000000000000     
  0.55555555999999995        1.0000000000000000        0.0000000000000000     
  0.44444444000000000        1.0000000000000000        0.0000000000000000     
  0.33333332999999998        1.0000000000000000        0.0000000000000000     
  0.22222222000000000        1.0000000000000000        0.0000000000000000     
  0.11111111000000000        1.0000000000000000        0.0000000000000000     
   0.0000000000000000       0.11111111000000000        0.0000000000000000     
   0.0000000000000000       0.22222222000000000        0.0000000000000000     
[...]
 CELL_DATA         354
 SCALARS E float
 LOOKUP_TABLE default
    0.70801769536730096988E+00
    0.67355957214322770277E+00
    0.65287449277258247093E+00
    0.60337338160861031522E+00
    0.71976539979449472018E+00
    0.70570090970213250614E+00
    0.69161747430058062580E+00
    0.68713431805738944824E+00
    0.70218487570235110784E+00
    0.69030069367923185819E+00
    0.66192890292708872479E+00
    0.67724961781166570507E+00
    0.65309818402971453466E+00
    0.65794302158832307370E+00
    0.66624688798042042137E+00
    0.66209848365280721261E+00
    0.67531696309916888765E+00
    0.68425087665523220970E+00
    0.72797172072883720162E+00
    0.72053147004059248104E+00
    0.69974767047018326949E+00
    0.70469931907100591406E+00
    0.69862808932492737046E+00
    0.68460282760953738990E+00
    0.69324080505551788356E+00
    0.68833040856516092276E+00
    0.70479081948817723369E+00
    0.71295147673027570168E+00
    0.66083781970124366723E+00
    0.68691756995698294297E+00
    0.71004741899457790577E+00
    0.70717373854364906638E+00
    0.70945059324113346477E+00
    0.70179875762021715069E+00
    0.67379039517949412819E+00
    0.68744888115991997779E+00
    0.66475014624687989162E+00
    0.66967482594213589842E+00
    0.68596480288153971472E+00
    0.67855911477984531821E+00
    0.68717521270724490901E+00
    0.68882784282739639714E+00
    0.69131762544283237304E+00
    0.69073230341927160936E+00
    0.69106942117157688088E+00
    0.68440276885927031625E+00
    0.67084300384751616164E+00
    0.67546258899970224032E+00
    0.66178480490648083912E+00
    0.64862938861666763479E+00
    0.62019653643587979719E+00
    0.63032935289656777389E+00
    0.71277993230177960626E+00
    0.71473429572687019462E+00
    0.71580739626771205941E+00
    0.71540343404740580624E+00
    0.71057256698657345062E+00
    0.71140615119773897845E+00
    0.71142898516684494048E+00
    0.71267533722867848489E+00
    0.70832933475491555164E+00
    0.70445795942476951979E+00
    0.68710730598265601365E+00
    0.69630500763622016347E+00
    0.67643083863184649829E+00
    0.66127671544648480850E+00
    0.62173643566747349709E+00
    0.64024475621237197931E+00
    0.61568217824117910109E+00
    0.64743172906313639636E+00
    0.66936325298989685084E+00
    0.63090716788590484043E+00
    0.66407565848383032225E+00
    0.66020223347915163448E+00
    0.68652251859495483366E+00
    0.69152392135732287937E+00
    0.68708172949693480103E+00
    0.67085660135379732161E+00
    0.70725252269406468919E+00
    0.71551390450395901954E+00
    0.69608515196013387438E+00
    0.70279603272421675708E+00
    0.73848732828968244313E+00
    0.67573460166773091640E+00
    0.62576136612567889728E+00
    0.57817802543139129590E+00
    0.44990159806842400236E+00
    0.62532913192033057204E+00
    0.61567042311155939505E+00
    0.63172262602519824171E+00
    0.53314811210371448880E+00
    0.71393736984339606355E+00
    0.69300970862461364064E+00
    0.70964478059645275110E+00
    0.71667657695953435049E+00
    0.70082824119303510635E+00
    0.71608644520327180416E+00
    0.69612916807744229519E+00
    0.65945880260421807506E+00
    0.68705291827679171313E+00
    0.66744200842680245778E+00
    0.69085482355711413938E+00
    0.68289512039448230230E+00
    0.61002914646255335107E+00
    0.60424616857531432412E+00
    0.59995784841539745447E+00
    0.60510219681250099200E+00
    0.60507625033695500161E+00
    0.72346870782333805305E+00
    0.70040441206442038968E+00
    0.72490426621160353182E+00
    0.69814789721592485083E+00
    0.69661113744478697640E+00
    0.69471378544048068004E+00
    0.69432208233979264556E+00
    0.70152604243847460630E+00
    0.72173541407267394199E+00
    0.71815508518597859222E+00
    0.73920366476834487024E+00
    0.66488887673786889465E+00
    0.73889828763638409903E+00
    0.70750295526645523569E+00
    0.71307066755589176843E+00
    0.69948030979210829017E+00
    0.71892347159564051751E+00
    0.71933808908508489743E+00
    0.69739199236819826577E+00
    0.70565617018103843350E+00
    0.69280618912922053987E+00
    0.72649524828866851589E+00
    0.69541712592638960100E+00
    0.73648340176588678041E+00
    0.73502872955723674853E+00
    0.68415975999131450891E+00
    0.69864902871012035668E+00
    0.68342447110361370655E+00
    0.66535568589676485907E+00
    0.69196422513239375096E+00
    0.66380353485014187420E+00
    0.64803667797656749894E+00
    0.67976213920059302964E+00
    0.68889804855240899251E+00
    0.69235925236830953011E+00
    0.68702921932682614603E+00
    0.66620803351485446964E+00
    0.70570913718365357870E+00
    0.70351320302540298890E+00
    0.67130550693195134571E+00
    0.67518792169276875548E+00
    0.64686811730243043428E+00
    0.60631422814745783434E+00
    0.62260556684804702066E+00
    0.63156658678614452374E+00
    0.61247622014011793290E+00
    0.63268382559324920500E+00
    0.68567925092283732447E+00
    0.66386878365451007511E+00
    0.65398137929309152483E+00
    0.68751288699683987815E+00
    0.67792922396164523313E+00
    0.73225087807454070088E+00
    0.67694176506871628352E+00
    0.68428883479475943741E+00
    0.68961434200736038136E+00
    0.73330254086825596982E+00
    0.71646051530154597486E+00
    0.72271223346040935898E+00
    0.71924246270794145452E+00
    0.71661601572505384539E+00
    0.71827018254169794353E+00
    0.68809205049986310598E+00
    0.65239595728652644002E+00
    0.68373594802115911229E+00
    0.67464589450840306561E+00
    0.65202615020118115385E+00
    0.70712239484185757110E+00
    0.72292556081237491217E+00
    0.72311040804218518208E+00
    0.69635952239658804874E+00
    0.71276114276343993659E+00
    0.64501942796551214876E+00
    0.67916447673746460634E+00
    0.65424821791376164271E+00
    0.68456799469333617925E+00
    0.67783646119859164436E+00
    0.70550845158398522994E+00
    0.71842598828089365703E+00
    0.70273905643326761705E+00
    0.71810271022807892205E+00
    0.72085002729059632909E+00
    0.60543295149699605240E+00
    0.62971275776389457057E+00
    0.59899449357645162539E+00
    0.62596984752159468002E+00
    0.58471769532126371960E+00
    0.71593832769728393828E+00
    0.70812113068851623154E+00
    0.71493950709063280868E+00
    0.72148935520174328762E+00
    0.71247853190954302249E+00
    0.70369197856092235988E+00
    0.70460062262575329228E+00
    0.71159972762511158884E+00
    0.70219305498687933920E+00
    0.70986196926930222872E+00
    0.51500271318368706641E+00
    0.62531911423641806103E+00
    0.58059040587810539780E+00
    0.61755261608564349096E+00
    0.62122518328645481844E+00
    0.72419095230354180170E+00
    0.72063532047342637732E+00
    0.69816531929597946959E+00
    0.70116726061089773570E+00
    0.68623141782048380222E+00
    0.66504113535287845416E+00
    0.68391010308437438781E+00
    0.68244104749104872454E+00
    0.66882712624714535377E+00
    0.48058685549959784256E+00
    0.41207797161171833000E+00
    0.38827953614689714179E+00
    0.72428533469844236237E+00
    0.67446899105408364417E+00
    0.74447976658756542800E+00
    0.69967264324433431355E+00
    0.70706340678667234378E+00
    0.71770810475860180588E+00
    0.71724675457965014758E+00
    0.71897658599553060377E+00
    0.71325563971209349212E+00
    0.70072125291394293800E+00
    0.71816698090244790453E+00
    0.71787127253012072980E+00
    0.71940262269533572503E+00
    0.73142194027844853466E+00
    0.69368711553861128749E+00
    0.63657523777987479185E+00
    0.65736020913171844260E+00
    0.60494764176041249115E+00
    0.62730708694547021587E+00
    0.74096321267738485261E+00
    0.69560463949030904018E+00
    0.68344065973637224687E+00
    0.63513984934452116793E+00
    0.66315664554638731332E+00
    0.71565542941385973386E+00
    0.70683836972810976107E+00
    0.69498754661655248732E+00
    0.71894421347311954218E+00
    0.70244484805908058433E+00
    0.68661674380592385702E+00
    0.71212495429103650491E+00
    0.69103367128548243148E+00
    0.69608327639916867113E+00
    0.67530180845733445150E+00
    0.68809478573192217610E+00
    0.69430419947602572961E+00
    0.70639244493973785133E+00
    0.71517746700963003015E+00
    0.70915786168776628884E+00
    0.63583954484429017207E+00
    0.65400385020209927944E+00
    0.67471662299193890799E+00
    0.70942646183274904459E+00
    0.70813898594179114365E+00
    0.67955363934872203835E+00
    0.70290323920424802040E+00
    0.69170795944108565134E+00
    0.66982313438295970620E+00
    0.66734621169583330236E+00
    0.59866218502483470321E+00
    0.62315791117580909830E+00
    0.63822605518276465109E+00
    0.70626896425543339575E+00
    0.67809950978509214714E+00
    0.69996153879245848195E+00
    0.70770452244327697322E+00
    0.70530268723527234087E+00
    0.74089730402471931647E+00
    0.73329583750392668406E+00
    0.67869915953444182044E+00
    0.62126073234514933574E+00
    0.61779591782685894241E+00
    0.54681246406624883782E+00
    0.67258422975530052224E+00
    0.67696164213815857025E+00
    0.71982554371299078966E+00
    0.69788696027224972340E+00
    0.68605474475385241906E+00
    0.69496886514388123146E+00
    0.71605425068898442831E+00
    0.72141829641006682827E+00
    0.64652099031239962379E+00
    0.65228501861412213625E+00
    0.71419730944719306276E+00
    0.70249364230883093452E+00
    0.71720279224171767929E+00
    0.62749973339702480590E+00
    0.71663825062188835080E+00
    0.70600373926852166839E+00
    0.62423932996312103683E+00
    0.71306090246816977718E+00
    0.63250115624689762228E+00
    0.71781220311285831581E+00
    0.68251549366997688040E+00
    0.72769310856119506781E+00
    0.68260729070054670942E+00
    0.71727641702163924542E+00
    0.72281834806263189908E+00
    0.73699839815252166098E+00
    0.69181405310133725628E+00
    0.65595676485150788970E+00
    0.70312729714571819972E+00
    0.65576136931222939186E+00
    0.68732158466056370028E+00
    0.50266502600441531623E+00
    0.71650237240083347601E+00
    0.70908231539559496426E+00
    0.69957294119834401158E+00
    0.71648295310852161411E+00
    0.68760153148500191556E+00
    0.64690994231439336026E+00
    0.63797869662762707321E+00
    0.58948501166691347208E+00
    0.58915668957570188624E+00
    0.70403234810474502048E+00
    0.70830463391422093800E+00
    0.68618416226319833839E+00
    0.67049218286028877678E+00
    0.66731339620127105849E+00
    0.67831441302322637021E+00
    0.70407787585618719639E+00
    0.69698434366664840933E+00
    0.71016825923224735639E+00
    0.70240708050694267151E+00
    0.69162597065938480334E+00
    0.70850508069168705028E+00
    0.70627298425385243164E+00
    0.68585561742273215557E+00
    0.65877714553803012887E+00
    0.67228264017068295466E+00
    0.67778322168940285941E+00
    0.67641100333867587580E+00
    0.66709029973750910703E+00
    0.65074023073531062078E+00
    0.62444466055299996388E+00
    0.70714554861848910594E+00
    0.70913569448933766459E+00
    0.70858140540963088227E+00
    0.70350789969820981540E+00
    0.69218570977771221031E+00
    0.67017690907346705309E+00
    0.63730123045062514464E+00
