# vtk DataFile Version 3.0
LAPLACIEN  2D
ASCII
DATASET UNSTRUCTURED_GRID
 POINTS         391  float
  0.50371505999999999       0.50367786999999997        0.0000000000000000     
  0.29013556000000001       0.29014535000000002        0.0000000000000000     
  0.70165584999999997       0.71206597999999999        0.0000000000000000     
  0.70304188999999995       0.30176619999999998        0.0000000000000000     
  0.30920671999999999       0.71149227999999998        0.0000000000000000     
  0.79044983999999996       0.49884783999999999        0.0000000000000000     
  0.49102621000000002       0.20968644000000000        0.0000000000000000     
  0.49912957000000002       0.77208717000000004        0.0000000000000000     
  0.21724072999999999       0.48989389000000000        0.0000000000000000     
  0.83255933999999998       0.83046598000000005        0.0000000000000000     
  0.16646774000000000       0.17015694000000001        0.0000000000000000     
  0.83054514999999995       0.16736480000000001        0.0000000000000000     
  0.16953130999999999       0.83265739000000005        0.0000000000000000     
  0.42166445000000002       0.36345201999999999        0.0000000000000000     
  0.64462200999999997       0.56347807999999999        0.0000000000000000     
  0.35324633999999999       0.56311191000000005        0.0000000000000000     
  0.65456411000000003       0.84856860999999995        0.0000000000000000     
  0.35141477999999998       0.15563974000000000        0.0000000000000000     
  0.15290967000000000       0.35206625000000003        0.0000000000000000     
  0.82942241000000005       0.34936866000000000        0.0000000000000000     
  0.84390527000000004       0.64441694999999999        0.0000000000000000     
  0.63699174999999997       0.14284276000000001        0.0000000000000000     
  0.15620682999999999       0.64648446999999998        0.0000000000000000     
  0.36426062999999997       0.85756310999999996        0.0000000000000000     
  0.63489340999999999       0.40519052000000000        0.0000000000000000     
  0.52518872999999999       0.65957078000000002        0.0000000000000000     
  0.32158959999999998       0.42298103999999997        0.0000000000000000     
  0.58861710000000000       0.31711036999999997        0.0000000000000000     
  0.42078418000000001       0.69497151999999995        0.0000000000000000     
  0.48608786999999998       0.89334152000000000        0.0000000000000000     
   9.7084320000000002E-002  0.50000000000000000        0.0000000000000000     
  0.90291568000000000       0.50000000000000000        0.0000000000000000     
  0.51392453000000005       0.10668648999999999        0.0000000000000000     
  0.59792566999999996       0.73122754000000001        0.0000000000000000     
  0.74510058999999995       0.41124730999999998        0.0000000000000000     
  0.73212551999999997       0.90191560000000004        0.0000000000000000     
   9.7784830000000003E-002  0.26957329000000002        0.0000000000000000     
  0.26711221000000002        9.8671499999999995E-002   0.0000000000000000     
  0.90191560000000004       0.26787448000000003        0.0000000000000000     
  0.90118569000000004       0.73039821000000005        0.0000000000000000     
  0.73122947000000005        9.8017859999999998E-002   0.0000000000000000     
   9.8084400000000002E-002  0.73212551999999997        0.0000000000000000     
  0.26957329000000002       0.90221516999999996        0.0000000000000000     
  0.39283522999999998       0.25360379000000000        0.0000000000000000     
  0.74480864000000002       0.60495284999999999        0.0000000000000000     
  0.25505132000000003       0.60593640999999998        0.0000000000000000     
  0.52159297999999998       0.40671636000000000        0.0000000000000000     
  0.40768852000000000       0.47699891000000000        0.0000000000000000     
   9.1467049999999994E-002   9.1876959999999994E-002   0.0000000000000000     
  0.90842484999999995       0.90819225000000003        0.0000000000000000     
  0.90820104999999995        9.1566729999999999E-002   0.0000000000000000     
   9.1807449999999999E-002  0.90843574000000005        0.0000000000000000     
  0.27098960000000000       0.20527094000000001        0.0000000000000000     
  0.73457293999999995       0.79835387000000002        0.0000000000000000     
  0.79817773000000003       0.25713470999999999        0.0000000000000000     
  0.20747797000000001       0.72863946000000002        0.0000000000000000     
  0.20175195000000001       0.27583914999999998        0.0000000000000000     
  0.79603889000000005       0.72159035000000005        0.0000000000000000     
  0.71761666000000002       0.19748431999999999        0.0000000000000000     
  0.28462607000000001       0.80251899999999998        0.0000000000000000     
  0.69134598999999997       0.49261972999999998        0.0000000000000000     
  0.44720578999999999       0.58582935999999997        0.0000000000000000     
  0.24242269999999999       0.37228174000000003        0.0000000000000000     
  0.38265623999999998       0.93072131999999996        0.0000000000000000     
  0.60971754000000000       0.91988369000000003        0.0000000000000000     
   7.9163609999999995E-002  0.60979116000000000        0.0000000000000000     
  0.92010649000000000       0.61081183999999999        0.0000000000000000     
  0.61954008999999999        7.1530830000000004E-002   0.0000000000000000     
  0.91882012999999996       0.38917363999999999        0.0000000000000000     
  0.39086346000000000        8.0652249999999995E-002   0.0000000000000000     
   7.9183480000000001E-002  0.38966213000000000        0.0000000000000000     
  0.59114111999999996       0.49294315000000000        0.0000000000000000     
  0.63337980999999999       0.64485914000000000        0.0000000000000000     
  0.50012352000000004       0.29676539000000002        0.0000000000000000     
  0.82552601000000003       0.92753492000000004        0.0000000000000000     
  0.92774772999999999       0.82498556999999995        0.0000000000000000     
   7.1970870000000006E-002  0.17510291000000000        0.0000000000000000     
  0.17422821999999999        7.2635640000000001E-002   0.0000000000000000     
  0.82510813000000005        7.2134840000000006E-002   0.0000000000000000     
  0.92754665000000003       0.17446275999999999        0.0000000000000000     
  0.17501022999999999       0.92789951999999998        0.0000000000000000     
   7.2464680000000004E-002  0.82554053000000005        0.0000000000000000     
  0.30731587999999999       0.50885354999999999        0.0000000000000000     
  0.59033407999999998       0.22171178999999999        0.0000000000000000     
  0.40109191999999999       0.78725542000000004        0.0000000000000000     
  0.35420917000000002       0.63754104000000000        0.0000000000000000     
  0.15983976999999999       0.56665573000000002        0.0000000000000000     
  0.84108459999999996       0.56757886999999996        0.0000000000000000     
  0.83902096000000004       0.43344338999999998        0.0000000000000000     
  0.43230028999999998       0.16004268999999999        0.0000000000000000     
  0.57536027999999995       0.83041363999999995        0.0000000000000000     
  0.15771898000000001       0.42747892999999998        0.0000000000000000     
  0.34021692999999997       0.34221559000000001        0.0000000000000000     
  0.56002271999999997       0.57501117999999996        0.0000000000000000     
  0.65344329000000001       0.78147597999999996        0.0000000000000000     
   0.0000000000000000        0.0000000000000000        0.0000000000000000     
   1.0000000000000000        0.0000000000000000        0.0000000000000000     
   1.0000000000000000        1.0000000000000000        0.0000000000000000     
   0.0000000000000000        1.0000000000000000        0.0000000000000000     
  0.11111111000000000        0.0000000000000000        0.0000000000000000     
  0.22222222000000000        0.0000000000000000        0.0000000000000000     
  0.33333332999999998        0.0000000000000000        0.0000000000000000     
  0.44444444000000000        0.0000000000000000        0.0000000000000000     
  0.55555555999999995        0.0000000000000000        0.0000000000000000     
  0.66666667000000002        0.0000000000000000        0.0000000000000000     
  0.77777777999999997        0.0000000000000000        0.0000000000000000     
  0.88888889000000004        0.0000000000000000        0.0000000000000000     
   1.0000000000000000       0.11111111000000000        0.0000000000000000     
   1.0000000000000000       0.22222222000000000        0.0000000000000000     
   1.0000000000000000       0.33333332999999998        0.0000000000000000     
   1.0000000000000000       0.44444444000000000        0.0000000000000000     
   1.0000000000000000       0.55555555999999995        0.0000000000000000     
   1.0000000000000000       0.66666667000000002        0.0000000000000000     
   1.0000000000000000       0.77777777999999997        0.0000000000000000     
   1.0000000000000000       0.88888889000000004        0.0000000000000000     
  0.88888889000000004        1.0000000000000000        0.0000000000000000     
  0.77777777999999997        1.0000000000000000        0.0000000000000000     
  0.66666667000000002        1.0000000000000000        0.0000000000000000     
  0.55555555999999995        1.0000000000000000        0.0000000000000000     
  0.44444444000000000        1.0000000000000000        0.0000000000000000     
  0.33333332999999998        1.0000000000000000        0.0000000000000000     
  0.22222222000000000        1.0000000000000000        0.0000000000000000     
  0.11111111000000000        1.0000000000000000        0.0000000000000000     
   0.0000000000000000       0.11111111000000000        0.0000000000000000     
   0.0000000000000000       0.22222222000000000        0.0000000000000000     
[...]
 CELL_DATA         354
 SCALARS E float
 LOOKUP_TABLE default
    0.71621107601729827596E+00
    0.71444355695351835500E+00
    0.65654454903349257489E+00
    0.60111331188198924291E+00
    0.74275556770344763891E+00
    0.73745980327006210864E+00
    0.70853875613629357932E+00
    0.72775966001127767591E+00
    0.70154875345519573937E+00
    0.68862254747821749490E+00
    0.63820213584893470404E+00
    0.66134019352020856353E+00
    0.63685035939593503951E+00
    0.63540127131109314096E+00
    0.64948924067358526635E+00
    0.64177940709644576422E+00
    0.66156578123302722805E+00
    0.69078979847580535001E+00
    0.72879753330064878103E+00
    0.71151661003667243666E+00
    0.72057677928365038156E+00
    0.71608103690639612893E+00
    0.69497150122934248095E+00
    0.70571654596186639274E+00
    0.68579519219305451472E+00
    0.69323677809292139074E+00
    0.71122772537409029159E+00
    0.70527591311147996844E+00
    0.71288585551319627598E+00
    0.72323217488433022559E+00
    0.72774779575724179992E+00
    0.72966953876644213839E+00
    0.71734342060713884859E+00
    0.71314769883424378172E+00
    0.69296085995335376939E+00
    0.70409155438540804717E+00
    0.67253362940291083749E+00
    0.68004580264057024053E+00
    0.69082216555949316206E+00
    0.68501861270813835247E+00
    0.69274118157487429848E+00
    0.69606640185352341987E+00
    0.69532152095812227444E+00
    0.69707071903677420011E+00
    0.69385669768207436370E+00
    0.68801625730061055641E+00
    0.67570966523673092752E+00
    0.68118645083533868601E+00
    0.66488088493833163994E+00
    0.65223811756872229761E+00
    0.62733817307090733451E+00
    0.64011061835418003874E+00
    0.72310292122253061464E+00
    0.72631613424170415882E+00
    0.72167582022828491439E+00
    0.72349116575308314303E+00
    0.71768391400325026730E+00
    0.72033880056488219790E+00
    0.72217860038947301327E+00
    0.72347247736843633970E+00
    0.71667315907454154367E+00
    0.71433208390540270383E+00
    0.69639733981102303062E+00
    0.70804012796861304224E+00
    0.68119672432487510250E+00
    0.66757192556355604562E+00
    0.63610289619239479553E+00
    0.65183493473532905238E+00
    0.62565313277473066922E+00
    0.66798364161563861252E+00
    0.70572752326956766922E+00
    0.64417776000601045805E+00
    0.69302786370219426892E+00
    0.65749776325712561142E+00
    0.69609271633164293558E+00
    0.72549299565226421649E+00
    0.72439770598431185711E+00
    0.69045960211655865724E+00
    0.73209350318496657639E+00
    0.72180898386484881879E+00
    0.74668438825671368253E+00
    0.73833704955691836780E+00
    0.73380753727036318601E+00
    0.73043016708156516259E+00
    0.64810179234388876068E+00
    0.65736454718435377576E+00
    0.73425520144676625911E+00
    0.63584371078383572495E+00
    0.64384480461915616356E+00
    0.62682678797430146922E+00
    0.67773810868751005465E+00
    0.75994654840381248295E+00
    0.75496291932330272800E+00
    0.74998834728826613283E+00
    0.74661160045001118135E+00
    0.75148282761258289320E+00
    0.76049824877962712844E+00
    0.72297408807141716469E+00
    0.66918076679304250298E+00
    0.70638045364250323654E+00
    0.69217040290798248492E+00
    0.70045104690992543439E+00
    0.70411972073581208242E+00
    0.65053558783957443623E+00
    0.65232406634797512890E+00
    0.63087386899024500142E+00
    0.62467128826596973745E+00
    0.63151849634740775397E+00
    0.74186105115670442078E+00
    0.74111426534843238834E+00
    0.75834423449308352438E+00
    0.74237621703299883080E+00
    0.75393769809993682607E+00
    0.74651992443095316343E+00
    0.73501878193382130799E+00
    0.74865253358163030839E+00
    0.74427171526458058004E+00
    0.72518516607016647590E+00
    0.74194686752302874133E+00
    0.73115921555811869137E+00
    0.73283041297140982806E+00
    0.73454070660170922569E+00
    0.74071042152576471729E+00
    0.71994733326172311028E+00
    0.75374878962099678414E+00
    0.75260220734770599815E+00
    0.71408186661939698769E+00
    0.72517251910794444658E+00
    0.73935983358608337035E+00
    0.73150689667685520057E+00
    0.74085700499748596837E+00
    0.74184217137827235256E+00
    0.74598744271269712414E+00
    0.73268730614658572620E+00
    0.73094614219685216661E+00
    0.70308717885486293753E+00
    0.68072832997202270544E+00
    0.70910999141947761437E+00
    0.69641089151989499229E+00
    0.68172094135069216669E+00
    0.68505595671838315219E+00
    0.69187420195053106475E+00
    0.71487959603637829531E+00
    0.70789410735397095831E+00
    0.68282209425649842416E+00
    0.73767441797287802707E+00
    0.73404220201893144448E+00
    0.68462810098997783914E+00
    0.68942821769611006832E+00
    0.66155783975754622883E+00
    0.63782144925195494167E+00
    0.64739374516068681764E+00
    0.66084051226886697528E+00
    0.64064678039940203824E+00
    0.64408870387182304285E+00
    0.72798501996705633488E+00
    0.68126463399660397435E+00
    0.65837647735403315163E+00
    0.72328858883759405973E+00
    0.69780813884226589039E+00
    0.75521972246977775445E+00
    0.67988064630425437684E+00
    0.70339177236733518850E+00
    0.72196738761749423841E+00
    0.73427639062402572101E+00
    0.75455301323732071328E+00
    0.75453408124636223153E+00
    0.75684438380285268266E+00
    0.74486765736587168263E+00
    0.74858299159174679360E+00
    0.73470753339100869361E+00
    0.66997422561294339705E+00
    0.70497377255668913776E+00
    0.71840913908980408298E+00
    0.67075317606065298914E+00
    0.76018172177150944435E+00
    0.73501484023178786931E+00
    0.72206697909664241397E+00
    0.76311209925284306799E+00
    0.74127200968637396716E+00
    0.65083688256227067992E+00
    0.71192788473638302094E+00
    0.67209573255347065945E+00
    0.71925402716659292413E+00
    0.68180910249146864377E+00
    0.76351195310246922077E+00
    0.72565124161535332625E+00
    0.74421856496913441070E+00
    0.76007746926593167114E+00
    0.73165220108685535827E+00
    0.63788674103341791444E+00
    0.67697881798488923621E+00
    0.62730600099904809674E+00
    0.64469508246305329280E+00
    0.63529216970227142536E+00
    0.75065856766595384642E+00
    0.73829066821355182615E+00
    0.74109331949604850820E+00
    0.75612547404147667507E+00
    0.74429151134300131076E+00
    0.72579932932292590131E+00
    0.73517360015996557898E+00
    0.73277141149212976501E+00
    0.72382507178124866343E+00
    0.73652557048832290043E+00
    0.69072481246248318421E+00
    0.62489719721960645948E+00
    0.64203996879696434430E+00
    0.64216239605940750312E+00
    0.63274273419825266540E+00
    0.73703642440897854105E+00
    0.73130380253074678265E+00
    0.71596687304621131620E+00
    0.72665953629901236521E+00
    0.71443023631090873948E+00
    0.67409331780984904636E+00
    0.72722464187431734572E+00
    0.70786524643000126034E+00
    0.69196826484939910618E+00
    0.70017685649845473606E+00
    0.73904993399032137269E+00
    0.76014829875604827958E+00
    0.72287428285358490410E+00
    0.74667729365038237876E+00
    0.74012939631890484193E+00
    0.71223315450154578432E+00
    0.73925735995386920862E+00
    0.75479730767871910935E+00
    0.75359676635416361634E+00
    0.74846647675225719265E+00
    0.75750679938314258166E+00
    0.74886661745795124467E+00
    0.76370488903629674127E+00
    0.74449871699640690625E+00
    0.73847197437655898167E+00
    0.73098197859082303385E+00
    0.74026874878786752543E+00
    0.63078759218412772114E+00
    0.68803901357394914307E+00
    0.67263098654494624107E+00
    0.67175669622390388191E+00
    0.73377774301249698574E+00
    0.74646727960504910548E+00
    0.73618796554316978664E+00
    0.65437000013015356181E+00
    0.65607617153361763584E+00
    0.75016030484083040530E+00
    0.74235718859643218259E+00
    0.71269486187160424606E+00
    0.74837850415527362724E+00
    0.75675058189467703240E+00
    0.73715544124132903470E+00
    0.73279043673024113481E+00
    0.73752448022283434437E+00
    0.72246873187307325548E+00
    0.71031577230672149348E+00
    0.71969574157591820196E+00
    0.70244664003034351651E+00
    0.75661970148937962577E+00
    0.76284736091781069067E+00
    0.72529738634554030696E+00
    0.67631614140662343893E+00
    0.69287474828531081528E+00
    0.67615819338395999338E+00
    0.74095154329928603065E+00
    0.74308593074531037459E+00
    0.69302664599504359977E+00
    0.73144209492406087048E+00
    0.72130854848264602808E+00
    0.68363197528051500296E+00
    0.67111134293899932235E+00
    0.66339707843556616762E+00
    0.64643768826456848853E+00
    0.64103825806166025991E+00
    0.72693698853211963229E+00
    0.71469787968936970834E+00
    0.72769091828445131576E+00
    0.71083785354083817154E+00
    0.74080627551883748705E+00
    0.75936567332983262446E+00
    0.75542685910935081228E+00
    0.73498606749571182561E+00
    0.65386454001118843316E+00
    0.61794744626356201689E+00
    0.66781398064198727038E+00
    0.69108712277132577917E+00
    0.68269891530277204694E+00
    0.74580023920973737006E+00
    0.74682763309189714729E+00
    0.70827071780448436211E+00
    0.71845982521342821592E+00
    0.72453073620242258723E+00
    0.72786826615744537605E+00
    0.66831265799038463982E+00
    0.67306592217595540006E+00
    0.73335454185736748123E+00
    0.75162740009844575262E+00
    0.75343900619048054246E+00
    0.65667807823858115324E+00
    0.74702095489045650112E+00
    0.72506095930500369384E+00
    0.60683978134573612895E+00
    0.73608249875690123787E+00
    0.64998914003952512619E+00
    0.71557393369436983477E+00
    0.70978609581333163003E+00
    0.71241113349027940238E+00
    0.71283404134924244211E+00
    0.75222429760299569512E+00
    0.75294680949315773155E+00
    0.74648767094274515177E+00
    0.72668995920149981327E+00
    0.69579311263060161785E+00
    0.76007509062262434973E+00
    0.67245095703173640711E+00
    0.72255586992523923584E+00
    0.67427344315000892205E+00
    0.74830917644355821050E+00
    0.72529825439302630929E+00
    0.70173330825982871417E+00
    0.72476840618065463406E+00
    0.71316523199868009364E+00
    0.65793430880079062373E+00
    0.63527858147057658655E+00
    0.58341608962517743642E+00
    0.59259298031765883508E+00
    0.72958020582059934789E+00
    0.69954502064293844210E+00
    0.67046436155995081663E+00
    0.64157837062722999910E+00
    0.63238383928610830687E+00
    0.65167502831626944459E+00
    0.69911044827561263926E+00
    0.70327654126773042620E+00
    0.68862858537402082959E+00
    0.69305610135666262384E+00
    0.70543520009846316654E+00
    0.71562412998866986591E+00
    0.71132432055765670853E+00
    0.69737979915555614596E+00
    0.65848789579669797511E+00
    0.66820834673398021852E+00
    0.67352182121066306308E+00
    0.67141295747463303201E+00
    0.66313524631223985661E+00
    0.64572076848123383108E+00
    0.62188360328621095086E+00
    0.70884374676942230042E+00
    0.70652462796130388600E+00
    0.70620642639266539842E+00
    0.70321399544678730997E+00
    0.69286989043287006140E+00
    0.66959917128380141982E+00
    0.64025796119769429193E+00
