# vtk DataFile Version 3.0
LAPLACIEN  2D
ASCII
DATASET UNSTRUCTURED_GRID
 POINTS         391  float
  0.50371505999999999       0.50367786999999997        0.0000000000000000     
  0.29013556000000001       0.29014535000000002        0.0000000000000000     
  0.70165584999999997       0.71206597999999999        0.0000000000000000     
  0.70304188999999995       0.30176619999999998        0.0000000000000000     
  0.30920671999999999       0.71149227999999998        0.0000000000000000     
  0.79044983999999996       0.49884783999999999        0.0000000000000000     
  0.49102621000000002       0.20968644000000000        0.0000000000000000     
  0.49912957000000002       0.77208717000000004        0.0000000000000000     
  0.21724072999999999       0.48989389000000000        0.0000000000000000     
  0.83255933999999998       0.83046598000000005        0.0000000000000000     
  0.16646774000000000       0.17015694000000001        0.0000000000000000     
  0.83054514999999995       0.16736480000000001        0.0000000000000000     
  0.16953130999999999       0.83265739000000005        0.0000000000000000     
  0.42166445000000002       0.36345201999999999        0.0000000000000000     
  0.64462200999999997       0.56347807999999999        0.0000000000000000     
  0.35324633999999999       0.56311191000000005        0.0000000000000000     
  0.65456411000000003       0.84856860999999995        0.0000000000000000     
  0.35141477999999998       0.15563974000000000        0.0000000000000000     
  0.15290967000000000       0.35206625000000003        0.0000000000000000     
  0.82942241000000005       0.34936866000000000        0.0000000000000000     
  0.84390527000000004       0.64441694999999999        0.0000000000000000     
  0.63699174999999997       0.14284276000000001        0.0000000000000000     
  0.15620682999999999       0.64648446999999998        0.0000000000000000     
  0.36426062999999997       0.85756310999999996        0.0000000000000000     
  0.63489340999999999       0.40519052000000000        0.0000000000000000     
  0.52518872999999999       0.65957078000000002        0.0000000000000000     
  0.32158959999999998       0.42298103999999997        0.0000000000000000     
  0.58861710000000000       0.31711036999999997        0.0000000000000000     
  0.42078418000000001       0.69497151999999995        0.0000000000000000     
  0.48608786999999998       0.89334152000000000        0.0000000000000000     
   9.7084320000000002E-002  0.50000000000000000        0.0000000000000000     
  0.90291568000000000       0.50000000000000000        0.0000000000000000     
  0.51392453000000005       0.10668648999999999        0.0000000000000000     
  0.59792566999999996       0.73122754000000001        0.0000000000000000     
  0.74510058999999995       0.41124730999999998        0.0000000000000000     
  0.73212551999999997       0.90191560000000004        0.0000000000000000     
   9.7784830000000003E-002  0.26957329000000002        0.0000000000000000     
  0.26711221000000002        9.8671499999999995E-002   0.0000000000000000     
  0.90191560000000004       0.26787448000000003        0.0000000000000000     
  0.90118569000000004       0.73039821000000005        0.0000000000000000     
  0.73122947000000005        9.8017859999999998E-002   0.0000000000000000     
   9.8084400000000002E-002  0.73212551999999997        0.0000000000000000     
  0.26957329000000002       0.90221516999999996        0.0000000000000000     
  0.39283522999999998       0.25360379000000000        0.0000000000000000     
  0.74480864000000002       0.60495284999999999        0.0000000000000000     
  0.25505132000000003       0.60593640999999998        0.0000000000000000     
  0.52159297999999998       0.40671636000000000        0.0000000000000000     
  0.40768852000000000       0.47699891000000000        0.0000000000000000     
   9.1467049999999994E-002   9.1876959999999994E-002   0.0000000000000000     
  0.90842484999999995       0.90819225000000003        0.0000000000000000     
  0.90820104999999995        9.1566729999999999E-002   0.0000000000000000     
   9.1807449999999999E-002  0.90843574000000005        0.0000000000000000     
  0.27098960000000000       0.20527094000000001        0.0000000000000000     
  0.73457293999999995       0.79835387000000002        0.0000000000000000     
  0.79817773000000003       0.25713470999999999        0.0000000000000000     
  0.20747797000000001       0.72863946000000002        0.0000000000000000     
  0.20175195000000001       0.27583914999999998        0.0000000000000000     
  0.79603889000000005       0.72159035000000005        0.0000000000000000     
  0.71761666000000002       0.19748431999999999        0.0000000000000000     
  0.28462607000000001       0.80251899999999998        0.0000000000000000     
  0.69134598999999997       0.49261972999999998        0.0000000000000000     
  0.44720578999999999       0.58582935999999997        0.0000000000000000     
  0.24242269999999999       0.37228174000000003        0.0000000000000000     
  0.38265623999999998       0.93072131999999996        0.0000000000000000     
  0.60971754000000000       0.91988369000000003        0.0000000000000000     
   7.9163609999999995E-002  0.60979116000000000        0.0000000000000000     
  0.92010649000000000       0.61081183999999999        0.0000000000000000     
  0.61954008999999999        7.1530830000000004E-002   0.0000000000000000     
  0.91882012999999996       0.38917363999999999        0.0000000000000000     
  0.39086346000000000        8.0652249999999995E-002   0.0000000000000000     
   7.9183480000000001E-002  0.38966213000000000        0.0000000000000000     
  0.59114111999999996       0.49294315000000000        0.0000000000000000     
  0.63337980999999999       0.64485914000000000        0.0000000000000000     
  0.50012352000000004       0.29676539000000002        0.0000000000000000     
  0.82552601000000003       0.92753492000000004        0.0000000000000000     
  0.92774772999999999       0.82498556999999995        0.0000000000000000     
   7.1970870000000006E-002  0.17510291000000000        0.0000000000000000     
  0.17422821999999999        7.2635640000000001E-002   0.0000000000000000     
  0.82510813000000005        7.2134840000000006E-002   0.0000000000000000     
  0.92754665000000003       0.17446275999999999        0.0000000000000000     
  0.17501022999999999       0.92789951999999998        0.0000000000000000     
   7.2464680000000004E-002  0.82554053000000005        0.0000000000000000     
  0.30731587999999999       0.50885354999999999        0.0000000000000000     
  0.59033407999999998       0.22171178999999999        0.0000000000000000     
  0.40109191999999999       0.78725542000000004        0.0000000000000000     
  0.35420917000000002       0.63754104000000000        0.0000000000000000     
  0.15983976999999999       0.56665573000000002        0.0000000000000000     
  0.84108459999999996       0.56757886999999996        0.0000000000000000     
  0.83902096000000004       0.43344338999999998        0.0000000000000000     
  0.43230028999999998       0.16004268999999999        0.0000000000000000     
  0.57536027999999995       0.83041363999999995        0.0000000000000000     
  0.15771898000000001       0.42747892999999998        0.0000000000000000     
  0.34021692999999997       0.34221559000000001        0.0000000000000000     
  0.56002271999999997       0.57501117999999996        0.0000000000000000     
  0.65344329000000001       0.78147597999999996        0.0000000000000000     
   0.0000000000000000        0.0000000000000000        0.0000000000000000     
   1.0000000000000000        0.0000000000000000        0.0000000000000000     
   1.0000000000000000        1.0000000000000000        0.0000000000000000     
   0.0000000000000000        1.0000000000000000        0.0000000000000000     
  0.11111111000000000        0.0000000000000000        0.0000000000000000     
  0.22222222000000000        0.0000000000000000        0.0000000000000000     
  0.33333332999999998        0.0000000000000000        0.0000000000000000     
  0.44444444000000000        0.0000000000000000        0.0000000000000000     
  0.55555555999999995        0.0000000000000000        0.0000000000000000     
  0.66666667000000002        0.0000000000000000        0.0000000000000000     
  0.77777777999999997        0.0000000000000000        0.0000000000000000     
  0.88888889000000004        0.0000000000000000        0.0000000000000000     
   1.0000000000000000       0.11111111000000000        0.0000000000000000     
   1.0000000000000000       0.22222222000000000        0.0000000000000000     
   1.0000000000000000       0.33333332999999998        0.0000000000000000     
   1.0000000000000000       0.44444444000000000        0.0000000000000000     
   1.0000000000000000       0.55555555999999995        0.0000000000000000     
   1.0000000000000000       0.66666667000000002        0.0000000000000000     
   1.0000000000000000       0.77777777999999997        0.0000000000000000     
   1.0000000000000000       0.88888889000000004        0.0000000000000000     
  0.88888889000000004        1.0000000000000000        0.0000000000000000     
  0.77777777999999997        1.0000000000000000        0.0000000000000000     
  0.66666667000000002        1.0000000000000000        0.0000000000000000     
  0.55555555999999995        1.0000000000000000        0.0000000000000000     
  0.44444444000000000        1.0000000000000000        0.0000000000000000     
  0.33333332999999998        1.0000000000000000        0.0000000000000000     
  0.22222222000000000        1.0000000000000000        0.0000000000000000     
  0.11111111000000000        1.0000000000000000        0.0000000000000000     
   0.0000000000000000       0.11111111000000000        0.0000000000000000     
   0.0000000000000000       0.22222222000000000        0.0000000000000000     
[...]
 CELL_DATA         354
 SCALARS E float
 LOOKUP_TABLE default
    0.71712486455158885867E+00
    0.71570971303801378394E+00
    0.65728647259304395778E+00
    0.60180537110711784798E+00
    0.74295358186827797908E+00
    0.73795827240326650198E+00
    0.70989210280372538886E+00
    0.72867065574592704280E+00
    0.70264306523127795234E+00
    0.68974970216983388926E+00
    0.64005134971542820832E+00
    0.66300659816381690703E+00
    0.63867695338133489980E+00
    0.63748146464485544449E+00
    0.65113182965613969344E+00
    0.64353412305831636520E+00
    0.66338628909951791179E+00
    0.69210302678919322084E+00
    0.72928131220986336380E+00
    0.71238181372121855972E+00
    0.72153991518164384278E+00
    0.71711339731736134517E+00
    0.69652791483659870497E+00
    0.70705027836153977461E+00
    0.68752985586992765299E+00
    0.69480851263506315796E+00
    0.71235856171196498821E+00
    0.70651462363367756314E+00
    0.71412982148363779444E+00
    0.72427561890166214376E+00
    0.72847713168161543074E+00
    0.73042245454159737683E+00
    0.71826907299339604052E+00
    0.71382070377137085693E+00
    0.69315796292503162324E+00
    0.70445963412359946521E+00
    0.67313427020116389787E+00
    0.68061342111571776492E+00
    0.69170972292868149189E+00
    0.68576629521127663303E+00
    0.69366926999182276781E+00
    0.69690111194062298594E+00
    0.69634056323826243329E+00
    0.69794679918339408431E+00
    0.69488489594179281283E+00
    0.68893951966696642675E+00
    0.67653819262853498451E+00
    0.68201955513739331849E+00
    0.66572164058895977323E+00
    0.65291219688563717494E+00
    0.62778044665698828908E+00
    0.64057958591299790641E+00
    0.72393871595616643422E+00
    0.72708348548755030727E+00
    0.72277857679685475478E+00
    0.72446930154176902850E+00
    0.71884384070293916302E+00
    0.72137470298155492721E+00
    0.72307233851387331391E+00
    0.72436866061338189837E+00
    0.71764458208985426602E+00
    0.71517151379042098736E+00
    0.69716816155294747404E+00
    0.70874978066639582330E+00
    0.68203640096551143568E+00
    0.66819878044117941851E+00
    0.63640051652551499206E+00
    0.65222905251381735336E+00
    0.62571226020627135345E+00
    0.66777900284895996830E+00
    0.70493872228150233905E+00
    0.64431771004594506902E+00
    0.69235628460796860839E+00
    0.65818511922339129061E+00
    0.69639286608273709422E+00
    0.72510871403193877249E+00
    0.72377915705590711859E+00
    0.69030455253436628915E+00
    0.73251775050345691032E+00
    0.72221848158284185359E+00
    0.74678834171634811412E+00
    0.73867061287999047359E+00
    0.73375105635945780946E+00
    0.73107252484391394010E+00
    0.64768029827881878902E+00
    0.65412281975841313209E+00
    0.72855846132463164544E+00
    0.63469319737695673034E+00
    0.64327836990065967449E+00
    0.62473218177828937492E+00
    0.67356626957103560294E+00
    0.75947213759437337544E+00
    0.75465785016196751389E+00
    0.74987744477100681806E+00
    0.74659898277217251472E+00
    0.75135993734629924479E+00
    0.75993960550555428313E+00
    0.72267261386328029982E+00
    0.66934861124863997972E+00
    0.70634856840701187863E+00
    0.69170309702758936421E+00
    0.70092831405102495879E+00
    0.70391165502499708495E+00
    0.64919844370995827276E+00
    0.65079989327092357954E+00
    0.62751787149731041993E+00
    0.62151531908086221634E+00
    0.63091905026937977752E+00
    0.74181493868618264553E+00
    0.74128539821240624352E+00
    0.75791424587758415843E+00
    0.74254127163086158792E+00
    0.75378882895243171092E+00
    0.74660760260556358059E+00
    0.73445260241010856817E+00
    0.74861433763977958122E+00
    0.74412335632310644407E+00
    0.72528489082808988986E+00
    0.74147440999217328894E+00
    0.73164929197844075226E+00
    0.73314671952666143895E+00
    0.73460261705058949033E+00
    0.74084610714542231680E+00
    0.72015945860317831517E+00
    0.75344601256092791353E+00
    0.75238570584341724068E+00
    0.71455888829164748710E+00
    0.72554605038520636473E+00
    0.73961070141419482660E+00
    0.73166366269946669920E+00
    0.74120305212592929589E+00
    0.74137714473525684333E+00
    0.74565951242574723956E+00
    0.73328284775946928065E+00
    0.73151619003284884535E+00
    0.70295975156517365168E+00
    0.68074602097091541086E+00
    0.70948773675526310978E+00
    0.69568735085173383226E+00
    0.68099591633608369534E+00
    0.68575583323206412700E+00
    0.69258922696968283628E+00
    0.71505139231222147878E+00
    0.70811621221467135889E+00
    0.68302887805469014726E+00
    0.73742332003799693219E+00
    0.73385586542705727453E+00
    0.68506127738259614546E+00
    0.68985171718454274536E+00
    0.66156485572791923211E+00
    0.63733620755161712879E+00
    0.64540329644916782925E+00
    0.66032661371215672919E+00
    0.63832287067429871463E+00
    0.64429166546458471743E+00
    0.72704828550525057995E+00
    0.68102250085060511697E+00
    0.65863556054194705158E+00
    0.72257920491128346807E+00
    0.69744686818974777065E+00
    0.75444339614851196885E+00
    0.68070376806068633169E+00
    0.70379450081501737646E+00
    0.72200048564671082119E+00
    0.73413187611688035528E+00
    0.75403925653300840626E+00
    0.75425401788685642046E+00
    0.75626463671198640437E+00
    0.74493862838640534374E+00
    0.74858306632233262423E+00
    0.73379688805990128664E+00
    0.66986264414078089402E+00
    0.70470042772498220351E+00
    0.71746349614884441515E+00
    0.67058324453238438156E+00
    0.75972492362076304850E+00
    0.73511054105931272762E+00
    0.72253899796729559313E+00
    0.76257874526601043819E+00
    0.74143608902064106481E+00
    0.65112665327407581728E+00
    0.71131514879826740483E+00
    0.67187901373417346917E+00
    0.71863430657255389367E+00
    0.68204775353336188903E+00
    0.76296149022553894081E+00
    0.72607517048242886659E+00
    0.74432891891393748729E+00
    0.75957133237853002861E+00
    0.73191672989550737860E+00
    0.63733127725915184048E+00
    0.67609668086335283910E+00
    0.62710510236778216342E+00
    0.64455974269554461298E+00
    0.63389027540090103763E+00
    0.75020650302512636998E+00
    0.73871945584207332480E+00
    0.74128643477626476876E+00
    0.75567199824480768555E+00
    0.74450006844992200339E+00
    0.72621178164706812197E+00
    0.73490750797015669260E+00
    0.73305555174246750383E+00
    0.72403078974951273761E+00
    0.73678280005072915859E+00
    0.68549720963606597390E+00
    0.62404644703237566183E+00
    0.63950014774196062284E+00
    0.64156241152954385232E+00
    0.63175543670243927696E+00
    0.73698155359667738562E+00
    0.73147061074976194028E+00
    0.71597040011357138134E+00
    0.72650248764350200403E+00
    0.71416121919643049676E+00
    0.67437942621865532011E+00
    0.72654147254617218454E+00
    0.70790833093414251564E+00
    0.69163553469034555476E+00
    0.69473917638585624967E+00
    0.73304422814089753579E+00
    0.75432316632557117053E+00
    0.72311006735457672434E+00
    0.74670214506587284653E+00
    0.74017512569495014230E+00
    0.71285055091676419181E+00
    0.73906252282895823491E+00
    0.75440666315124560448E+00
    0.75325384843784126687E+00
    0.74835209834132054851E+00
    0.75715766666989181566E+00
    0.74890140552195216817E+00
    0.76316848126479996939E+00
    0.74439942552902138573E+00
    0.73798809805626675029E+00
    0.73094114503231555346E+00
    0.73936551407066319896E+00
    0.63149286004780735837E+00
    0.68753613146110603704E+00
    0.67011983092071980561E+00
    0.67082591115405032500E+00
    0.73377119267946899761E+00
    0.74655030974225411455E+00
    0.73661740894533211943E+00
    0.65422362732120242779E+00
    0.65678851217861422551E+00
    0.74985284952223185684E+00
    0.74193829494134000413E+00
    0.71307273593615250196E+00
    0.74814881791114262732E+00
    0.75645462917746097986E+00
    0.73764185623335831732E+00
    0.73232505796696933942E+00
    0.73660624018230602683E+00
    0.72320856442234104922E+00
    0.70949827788105956916E+00
    0.71953427021147553511E+00
    0.70304229206004331676E+00
    0.75633826545054883006E+00
    0.76229650755426980879E+00
    0.72585638280061970384E+00
    0.67549340414298886248E+00
    0.69201518205991097155E+00
    0.67698758236325118354E+00
    0.74072991730221349194E+00
    0.74266166159931623625E+00
    0.69350144083015075047E+00
    0.73132479166788222358E+00
    0.72108780319084753163E+00
    0.68407692568193079197E+00
    0.67149889047765776162E+00
    0.66106304784731206858E+00
    0.64611346259031510186E+00
    0.64155819130165059327E+00
    0.72741738657876131580E+00
    0.71386490563212323668E+00
    0.72733046886870389436E+00
    0.71136955119510258960E+00
    0.74104269927703214638E+00
    0.75845380128146278054E+00
    0.75487813630761857464E+00
    0.73544580863761188638E+00
    0.65305583698439606533E+00
    0.61751563116425556288E+00
    0.66384163748391189497E+00
    0.69109773234875060410E+00
    0.68342305739819619870E+00
    0.74595974199199721610E+00
    0.74697918572175647789E+00
    0.70837640523981382223E+00
    0.71850082286519723063E+00
    0.72464453462651223781E+00
    0.72806273376764196748E+00
    0.66838213065571627780E+00
    0.67313158772715830924E+00
    0.73296400781983472861E+00
    0.75155204927795371539E+00
    0.75333534902805321387E+00
    0.65610390038580312932E+00
    0.74683917730481486075E+00
    0.72502051643339804343E+00
    0.60491418582782308100E+00
    0.73645702143223457092E+00
    0.64988258649919172782E+00
    0.71602172180339862528E+00
    0.70928014247645898571E+00
    0.71323340104360344327E+00
    0.71225388100260200730E+00
    0.75184149049656134878E+00
    0.75273565189187341407E+00
    0.74627454247063529369E+00
    0.72608190900579705485E+00
    0.69496876765448700741E+00
    0.75963778635042555898E+00
    0.67228002512694162718E+00
    0.72195600408184879004E+00
    0.66964455788596588537E+00
    0.74836261988782681875E+00
    0.72576140015130163885E+00
    0.70296206099149882718E+00
    0.72569590774038728043E+00
    0.71465986508794665522E+00
    0.65836588208088497876E+00
    0.63621117790060144337E+00
    0.58413731392210244131E+00
    0.59314209991224597918E+00
    0.73037038925745889628E+00
    0.70124566246409303361E+00
    0.67268098671792597720E+00
    0.64422356640237099512E+00
    0.63532392228996670269E+00
    0.65426480293430444579E+00
    0.70058646631811782868E+00
    0.70502846295743726301E+00
    0.69085364811902572058E+00
    0.69517259098474248891E+00
    0.70719204069265284573E+00
    0.71701640228144658540E+00
    0.71243931389645853702E+00
    0.69798341125966933962E+00
    0.65947742658044616881E+00
    0.66947514640811056630E+00
    0.67481638520150588612E+00
    0.67275445953567825086E+00
    0.66434108857745977073E+00
    0.64685624779138783946E+00
    0.62269389257044849284E+00
    0.71014123814720697681E+00
    0.70807026928195393456E+00
    0.70770177550321733406E+00
    0.70456853318011991583E+00
    0.69405224530279141515E+00
    0.67068380105744374031E+00
    0.64093120715191653769E+00
