# vtk DataFile Version 3.0
LAPLACIEN  2D
ASCII
DATASET UNSTRUCTURED_GRID
 POINTS         391  float
  0.50371505999999999       0.50367786999999997        0.0000000000000000     
  0.29013556000000001       0.29014535000000002        0.0000000000000000     
  0.70165584999999997       0.71206597999999999        0.0000000000000000     
  0.70304188999999995       0.30176619999999998        0.0000000000000000     
  0.30920671999999999       0.71149227999999998        0.0000000000000000     
  0.79044983999999996       0.49884783999999999        0.0000000000000000     
  0.49102621000000002       0.20968644000000000        0.0000000000000000     
  0.49912957000000002       0.77208717000000004        0.0000000000000000     
  0.21724072999999999       0.48989389000000000        0.0000000000000000     
  0.83255933999999998       0.83046598000000005        0.0000000000000000     
  0.16646774000000000       0.17015694000000001        0.0000000000000000     
  0.83054514999999995       0.16736480000000001        0.0000000000000000     
  0.16953130999999999       0.83265739000000005        0.0000000000000000     
  0.42166445000000002       0.36345201999999999        0.0000000000000000     
  0.64462200999999997       0.56347807999999999        0.0000000000000000     
  0.35324633999999999       0.56311191000000005        0.0000000000000000     
  0.65456411000000003       0.84856860999999995        0.0000000000000000     
  0.35141477999999998       0.15563974000000000        0.0000000000000000     
  0.15290967000000000       0.35206625000000003        0.0000000000000000     
  0.82942241000000005       0.34936866000000000        0.0000000000000000     
  0.84390527000000004       0.64441694999999999        0.0000000000000000     
  0.63699174999999997       0.14284276000000001        0.0000000000000000     
  0.15620682999999999       0.64648446999999998        0.0000000000000000     
  0.36426062999999997       0.85756310999999996        0.0000000000000000     
  0.63489340999999999       0.40519052000000000        0.0000000000000000     
  0.52518872999999999       0.65957078000000002        0.0000000000000000     
  0.32158959999999998       0.42298103999999997        0.0000000000000000     
  0.58861710000000000       0.31711036999999997        0.0000000000000000     
  0.42078418000000001       0.69497151999999995        0.0000000000000000     
  0.48608786999999998       0.89334152000000000        0.0000000000000000     
   9.7084320000000002E-002  0.50000000000000000        0.0000000000000000     
  0.90291568000000000       0.50000000000000000        0.0000000000000000     
  0.51392453000000005       0.10668648999999999        0.0000000000000000     
  0.59792566999999996       0.73122754000000001        0.0000000000000000     
  0.74510058999999995       0.41124730999999998        0.0000000000000000     
  0.73212551999999997       0.90191560000000004        0.0000000000000000     
   9.7784830000000003E-002  0.26957329000000002        0.0000000000000000     
  0.26711221000000002        9.8671499999999995E-002   0.0000000000000000     
  0.90191560000000004       0.26787448000000003        0.0000000000000000     
  0.90118569000000004       0.73039821000000005        0.0000000000000000     
  0.73122947000000005        9.8017859999999998E-002   0.0000000000000000     
   9.8084400000000002E-002  0.73212551999999997        0.0000000000000000     
  0.26957329000000002       0.90221516999999996        0.0000000000000000     
  0.39283522999999998       0.25360379000000000        0.0000000000000000     
  0.74480864000000002       0.60495284999999999        0.0000000000000000     
  0.25505132000000003       0.60593640999999998        0.0000000000000000     
  0.52159297999999998       0.40671636000000000        0.0000000000000000     
  0.40768852000000000       0.47699891000000000        0.0000000000000000     
   9.1467049999999994E-002   9.1876959999999994E-002   0.0000000000000000     
  0.90842484999999995       0.90819225000000003        0.0000000000000000     
  0.90820104999999995        9.1566729999999999E-002   0.0000000000000000     
   9.1807449999999999E-002  0.90843574000000005        0.0000000000000000     
  0.27098960000000000       0.20527094000000001        0.0000000000000000     
  0.73457293999999995       0.79835387000000002        0.0000000000000000     
  0.79817773000000003       0.25713470999999999        0.0000000000000000     
  0.20747797000000001       0.72863946000000002        0.0000000000000000     
  0.20175195000000001       0.27583914999999998        0.0000000000000000     
  0.79603889000000005       0.72159035000000005        0.0000000000000000     
  0.71761666000000002       0.19748431999999999        0.0000000000000000     
  0.28462607000000001       0.80251899999999998        0.0000000000000000     
  0.69134598999999997       0.49261972999999998        0.0000000000000000     
  0.44720578999999999       0.58582935999999997        0.0000000000000000     
  0.24242269999999999       0.37228174000000003        0.0000000000000000     
  0.38265623999999998       0.93072131999999996        0.0000000000000000     
  0.60971754000000000       0.91988369000000003        0.0000000000000000     
   7.9163609999999995E-002  0.60979116000000000        0.0000000000000000     
  0.92010649000000000       0.61081183999999999        0.0000000000000000     
  0.61954008999999999        7.1530830000000004E-002   0.0000000000000000     
  0.91882012999999996       0.38917363999999999        0.0000000000000000     
  0.39086346000000000        8.0652249999999995E-002   0.0000000000000000     
   7.9183480000000001E-002  0.38966213000000000        0.0000000000000000     
  0.59114111999999996       0.49294315000000000        0.0000000000000000     
  0.63337980999999999       0.64485914000000000        0.0000000000000000     
  0.50012352000000004       0.29676539000000002        0.0000000000000000     
  0.82552601000000003       0.92753492000000004        0.0000000000000000     
  0.92774772999999999       0.82498556999999995        0.0000000000000000     
   7.1970870000000006E-002  0.17510291000000000        0.0000000000000000     
  0.17422821999999999        7.2635640000000001E-002   0.0000000000000000     
  0.82510813000000005        7.2134840000000006E-002   0.0000000000000000     
  0.92754665000000003       0.17446275999999999        0.0000000000000000     
  0.17501022999999999       0.92789951999999998        0.0000000000000000     
   7.2464680000000004E-002  0.82554053000000005        0.0000000000000000     
  0.30731587999999999       0.50885354999999999        0.0000000000000000     
  0.59033407999999998       0.22171178999999999        0.0000000000000000     
  0.40109191999999999       0.78725542000000004        0.0000000000000000     
  0.35420917000000002       0.63754104000000000        0.0000000000000000     
  0.15983976999999999       0.56665573000000002        0.0000000000000000     
  0.84108459999999996       0.56757886999999996        0.0000000000000000     
  0.83902096000000004       0.43344338999999998        0.0000000000000000     
  0.43230028999999998       0.16004268999999999        0.0000000000000000     
  0.57536027999999995       0.83041363999999995        0.0000000000000000     
  0.15771898000000001       0.42747892999999998        0.0000000000000000     
  0.34021692999999997       0.34221559000000001        0.0000000000000000     
  0.56002271999999997       0.57501117999999996        0.0000000000000000     
  0.65344329000000001       0.78147597999999996        0.0000000000000000     
   0.0000000000000000        0.0000000000000000        0.0000000000000000     
   1.0000000000000000        0.0000000000000000        0.0000000000000000     
   1.0000000000000000        1.0000000000000000        0.0000000000000000     
   0.0000000000000000        1.0000000000000000        0.0000000000000000     
  0.11111111000000000        0.0000000000000000        0.0000000000000000     
  0.22222222000000000        0.0000000000000000        0.0000000000000000     
  0.33333332999999998        0.0000000000000000        0.0000000000000000     
  0.44444444000000000        0.0000000000000000        0.0000000000000000     
  0.55555555999999995        0.0000000000000000        0.0000000000000000     
  0.66666667000000002        0.0000000000000000        0.0000000000000000     
  0.77777777999999997        0.0000000000000000        0.0000000000000000     
  0.88888889000000004        0.0000000000000000        0.0000000000000000     
   1.0000000000000000       0.11111111000000000        0.0000000000000000     
   1.0000000000000000       0.22222222000000000        0.0000000000000000     
   1.0000000000000000       0.33333332999999998        0.0000000000000000     
   1.0000000000000000       0.44444444000000000        0.0000000000000000     
   1.0000000000000000       0.55555555999999995        0.0000000000000000     
   1.0000000000000000       0.66666667000000002        0.0000000000000000     
   1.0000000000000000       0.77777777999999997        0.0000000000000000     
   1.0000000000000000       0.88888889000000004        0.0000000000000000     
  0.88888889000000004        1.0000000000000000        0.0000000000000000     
  0.77777777999999997        1.0000000000000000        0.0000000000000000     
  0.66666667000000002        1.0000000000000000        0.0000000000000000     
  0.55555555999999995        1.0000000000000000        0.0000000000000000     
  0.44444444000000000        1.0000000000000000        0.0000000000000000     
  0.33333332999999998        1.0000000000000000        0.0000000000000000     
  0.22222222000000000        1.0000000000000000        0.0000000000000000     
  0.11111111000000000        1.0000000000000000        0.0000000000000000     
   0.0000000000000000       0.11111111000000000        0.0000000000000000     
   0.0000000000000000       0.22222222000000000        0.0000000000000000     
[...]
 CELL_DATA         354
 SCALARS E float
 LOOKUP_TABLE default
    0.70264916030080293297E+00
    0.66105169235649396953E+00
    0.64908337216366129852E+00
    0.60106053439035356245E+00
    0.71415047366058059808E+00
    0.69204840085957353146E+00
    0.69238689339144765533E+00
    0.67937909996007506130E+00
    0.69792091977622761068E+00
    0.68597083491821453372E+00
    0.65870079752966548270E+00
    0.67371595913493720342E+00
    0.64918770437380945992E+00
    0.65451350109723216431E+00
    0.66269637335189157668E+00
    0.65881160579696806945E+00
    0.67192054475554563453E+00
    0.67974561502454355910E+00
    0.72673015491275438915E+00
    0.71939600394679270590E+00
    0.69123780819707225653E+00
    0.70068004588971877222E+00
    0.69408430811221921708E+00
    0.67778208462388267463E+00
    0.68898546262097914994E+00
    0.68428224812730398252E+00
    0.69937678059154784194E+00
    0.71105893222766702877E+00
    0.65117276966484127776E+00
    0.67593181120068046575E+00
    0.70291463217661176444E+00
    0.69582105538049354720E+00
    0.70402672453191750268E+00
    0.69699118939175208620E+00
    0.66950649313734089674E+00
    0.68292983877181623331E+00
    0.66091714789834865584E+00
    0.66544870392977051310E+00
    0.68139218273800061798E+00
    0.67429070198256213509E+00
    0.68188488794439372498E+00
    0.68367619955165237489E+00
    0.68604490557510011683E+00
    0.68567008406306562129E+00
    0.68631869909230736049E+00
    0.67997180331542661502E+00
    0.66626217642119844875E+00
    0.67074335305013466080E+00
    0.65767324680968608508E+00
    0.64531297952602229007E+00
    0.61717412283078343371E+00
    0.62648015780528487628E+00
    0.70742437076978581523E+00
    0.70943923899710237269E+00
    0.70978999493798666798E+00
    0.70965520631846168431E+00
    0.70329433433438270917E+00
    0.70442466782676116388E+00
    0.70534810730420793856E+00
    0.70651060565510703793E+00
    0.70254575434771582287E+00
    0.69897426355314817847E+00
    0.68185088495785062257E+00
    0.69095479649016333656E+00
    0.67203170703947567866E+00
    0.65762747228702234104E+00
    0.61758113618778365250E+00
    0.63645039730129115974E+00
    0.61334553106754374774E+00
    0.64532700879842319619E+00
    0.66687229660242075546E+00
    0.62690041470370760912E+00
    0.66309240964286841891E+00
    0.65819353809805303257E+00
    0.68406969154577546011E+00
    0.68619641485183879848E+00
    0.68188783259603569231E+00
    0.66796470819463582558E+00
    0.71110323927822005619E+00
    0.71671354772781992182E+00
    0.67926101610710909462E+00
    0.69833339968346297422E+00
    0.73830390586462202318E+00
    0.66736194531336678892E+00
    0.62415868688665954167E+00
    0.57970341697426208682E+00
    0.43931005454175842129E+00
    0.62567895357419955893E+00
    0.61291545069038932958E+00
    0.63463038269197491470E+00
    0.53232412340722368160E+00
    0.70957021129686714822E+00
    0.68654316686511362988E+00
    0.69738708296936680053E+00
    0.71070615691330862873E+00
    0.68752570791608680345E+00
    0.72536354801733715636E+00
    0.69249888980401730354E+00
    0.65797072673381362673E+00
    0.68303284379335593712E+00
    0.66592760736156209056E+00
    0.68561429007938823332E+00
    0.68087962031645976602E+00
    0.61023618602693241453E+00
    0.60458939580665194136E+00
    0.60496178033918168726E+00
    0.61096420761866709892E+00
    0.60163677528213233003E+00
    0.73222796601100836877E+00
    0.69381501082198404617E+00
    0.72046177477366102337E+00
    0.69216768237081338633E+00
    0.68308823649763095176E+00
    0.67980238699029027494E+00
    0.68959772982743650083E+00
    0.69215318802684999699E+00
    0.72663930895878159344E+00
    0.71815299079259731219E+00
    0.73847056612055161917E+00
    0.65233588903190442565E+00
    0.74697227535484589378E+00
    0.70214415501809690490E+00
    0.70690195479822082181E+00
    0.69498567777689879144E+00
    0.71337386866741281377E+00
    0.71341435926413487856E+00
    0.69203290761189806268E+00
    0.70034887048829430611E+00
    0.68325514497843975459E+00
    0.72897081631432292248E+00
    0.68218326322229005942E+00
    0.73523058284903963777E+00
    0.73955163486475572476E+00
    0.66510916655451579604E+00
    0.69331119601530954988E+00
    0.67945214566499867459E+00
    0.66204494768145505379E+00
    0.68786714827851580534E+00
    0.66209567967389904020E+00
    0.64511971492436870346E+00
    0.67513095040260795443E+00
    0.68310141673808022489E+00
    0.68737201044556761609E+00
    0.68212732479366633420E+00
    0.66239496422495847128E+00
    0.70105017193969410005E+00
    0.69879243388147460614E+00
    0.66688783366420967269E+00
    0.67063018363815263267E+00
    0.64374952029572918288E+00
    0.60215324494949584722E+00
    0.62469775679315409089E+00
    0.62827794138288284298E+00
    0.61550361118467289412E+00
    0.62879671360546529613E+00
    0.68126036370184894775E+00
    0.66230145611605495404E+00
    0.65279297196662267044E+00
    0.68262794847700369871E+00
    0.67698237326476573550E+00
    0.73085873433931536347E+00
    0.67289159346167215503E+00
    0.67930510896145979149E+00
    0.68350153114256617659E+00
    0.73404168118115031838E+00
    0.71206023362141324107E+00
    0.71819465313793717787E+00
    0.71538924890179089733E+00
    0.71098541419139271724E+00
    0.71226732250208779629E+00
    0.68199578857479348226E+00
    0.65009218526506640234E+00
    0.68057476126512883585E+00
    0.67003650249541724104E+00
    0.64815668853519869952E+00
    0.70105473801076234608E+00
    0.72787132376903407316E+00
    0.72480693971860266078E+00
    0.68492724759469392204E+00
    0.71462054928598561787E+00
    0.64227018281594094873E+00
    0.67420736264867131560E+00
    0.65231463450097670886E+00
    0.67934819199740958950E+00
    0.67645465933439719031E+00
    0.69235403290625963102E+00
    0.71982950442662241297E+00
    0.69752883176614532967E+00
    0.71732832392079726169E+00
    0.72333355491334272447E+00
    0.60020359681409884978E+00
    0.62614550233888222053E+00
    0.59240996999080064445E+00
    0.62178344603060020646E+00
    0.58065490747848347297E+00
    0.71197789718583126550E+00
    0.69532674263944360682E+00
    0.70911607423831179986E+00
    0.71751358155226019342E+00
    0.70067458293751760934E+00
    0.69740196622819339289E+00
    0.70053161646409645158E+00
    0.70655296887585916643E+00
    0.69734040512707906601E+00
    0.70355124868790186454E+00
    0.51369080903430008878E+00
    0.62677219425731522939E+00
    0.58392479276376529906E+00
    0.61578663105632913677E+00
    0.62191414200442618476E+00
    0.72634082686982204269E+00
    0.72408233101008434573E+00
    0.69316373789274410289E+00
    0.69493922850051792484E+00
    0.68077046064040813711E+00
    0.66213945181074684854E+00
    0.67904632182246671412E+00
    0.67673431080320367581E+00
    0.66577504773330165033E+00
    0.47353329495157103768E+00
    0.39441509375577066265E+00
    0.36971161900649618381E+00
    0.72341559351602879868E+00
    0.65384298432146203961E+00
    0.75179028033338601844E+00
    0.69462016783633095951E+00
    0.70200364045923158152E+00
    0.71218759190958746963E+00
    0.71201775130396649516E+00
    0.71409358252597476824E+00
    0.70264348627254358259E+00
    0.68371706335596971194E+00
    0.71551055655386663901E+00
    0.71561353986290821005E+00
    0.71552166990074328456E+00
    0.72962696881811672789E+00
    0.68824936156467253490E+00
    0.63291475364274030202E+00
    0.65519676188652964388E+00
    0.60694220423837419442E+00
    0.62325076113097921393E+00
    0.74119544213670462973E+00
    0.67837659337564937267E+00
    0.67859060394666492755E+00
    0.63237751570373967880E+00
    0.66217005814734430924E+00
    0.71079992190900986859E+00
    0.70226196238041826980E+00
    0.68997089381193776880E+00
    0.72784158212094152152E+00
    0.68703623727025009416E+00
    0.66868569684653900165E+00
    0.70808330054789136998E+00
    0.68554124205440469808E+00
    0.70153623364737260903E+00
    0.67313032723778665201E+00
    0.68165644134486702566E+00
    0.68796277350113865801E+00
    0.69535755067845739230E+00
    0.70612402638561388990E+00
    0.70367859827482781565E+00
    0.63230742725166100282E+00
    0.65154812595618294413E+00
    0.67123198338818923503E+00
    0.70482799462413547875E+00
    0.70369565300260528140E+00
    0.67496671786683803962E+00
    0.69834236713636110849E+00
    0.68737846758766896205E+00
    0.66526445495984354306E+00
    0.66629548383692416280E+00
    0.60043138511585825157E+00
    0.61892976778414898753E+00
    0.63461042044024007502E+00
    0.71114984532810798790E+00
    0.67586705830106119652E+00
    0.69331650110299392065E+00
    0.70246878467824547254E+00
    0.69221038225777764552E+00
    0.74001610871103895573E+00
    0.74054040060930881317E+00
    0.67087491197903159623E+00
    0.62029031882213769844E+00
    0.61707861398002228359E+00
    0.54504370808301727536E+00
    0.66938542527920730230E+00
    0.67293056148369512215E+00
    0.71302852838473562702E+00
    0.68563298681099738019E+00
    0.68168626404329146773E+00
    0.69070166317129988443E+00
    0.71407033807676445480E+00
    0.71941307441342461360E+00
    0.64203486256886210803E+00
    0.64819139998334762698E+00
    0.71084202545688934816E+00
    0.69098381284591348095E+00
    0.70575755732191158831E+00
    0.62341710042461229158E+00
    0.71189996462434046443E+00
    0.70159051188566934343E+00
    0.62787367045033781743E+00
    0.70662863386457486214E+00
    0.62923535926451834577E+00
    0.71750447535355865725E+00
    0.67957437397461584183E+00
    0.73122721624077069436E+00
    0.67920447314979426334E+00
    0.71281725574948961999E+00
    0.71834850902170876985E+00
    0.74107365481609521751E+00
    0.68696852688298604139E+00
    0.65267204962164460103E+00
    0.69468763210534001384E+00
    0.65491978759426550116E+00
    0.68290486882333900631E+00
    0.49553442488282828382E+00
    0.70706924176072161181E+00
    0.70418449723952436514E+00
    0.69389048708179124070E+00
    0.71183675119932554587E+00
    0.67557342106241291546E+00
    0.64306835552242613829E+00
    0.63455083746260565469E+00
    0.58798699463258752296E+00
    0.58605424403532668798E+00
    0.69072534621359582552E+00
    0.70375908922875973772E+00
    0.68012827859607105641E+00
    0.66466578547830734713E+00
    0.66164941125203569072E+00
    0.67257421456763277767E+00
    0.70007472706698747889E+00
    0.69161602472649486018E+00
    0.70663517180594759282E+00
    0.69894838039741802316E+00
    0.68340203977810431990E+00
    0.69747949935477027150E+00
    0.70038405952612781125E+00
    0.68119666451610938473E+00
    0.65458895821150764327E+00
    0.66757884081315688185E+00
    0.67300551528703644877E+00
    0.67156980286108802769E+00
    0.66268079913824518012E+00
    0.64682002793542314745E+00
    0.62168002137818301200E+00
    0.70124823721687412625E+00
    0.70295150532043382263E+00
    0.70254866076265420904E+00
    0.69768300150757267541E+00
    0.68697283104796647013E+00
    0.66557891636629840093E+00
    0.63398778871591399131E+00
