# vtk DataFile Version 3.0
LAPLACIEN  2D
ASCII
DATASET UNSTRUCTURED_GRID
 POINTS         391  float
  0.50371505999999999       0.50367786999999997        0.0000000000000000     
  0.29013556000000001       0.29014535000000002        0.0000000000000000     
  0.70165584999999997       0.71206597999999999        0.0000000000000000     
  0.70304188999999995       0.30176619999999998        0.0000000000000000     
  0.30920671999999999       0.71149227999999998        0.0000000000000000     
  0.79044983999999996       0.49884783999999999        0.0000000000000000     
  0.49102621000000002       0.20968644000000000        0.0000000000000000     
  0.49912957000000002       0.77208717000000004        0.0000000000000000     
  0.21724072999999999       0.48989389000000000        0.0000000000000000     
  0.83255933999999998       0.83046598000000005        0.0000000000000000     
  0.16646774000000000       0.17015694000000001        0.0000000000000000     
  0.83054514999999995       0.16736480000000001        0.0000000000000000     
  0.16953130999999999       0.83265739000000005        0.0000000000000000     
  0.42166445000000002       0.36345201999999999        0.0000000000000000     
  0.64462200999999997       0.56347807999999999        0.0000000000000000     
  0.35324633999999999       0.56311191000000005        0.0000000000000000     
  0.65456411000000003       0.84856860999999995        0.0000000000000000     
  0.35141477999999998       0.15563974000000000        0.0000000000000000     
  0.15290967000000000       0.35206625000000003        0.0000000000000000     
  0.82942241000000005       0.34936866000000000        0.0000000000000000     
  0.84390527000000004       0.64441694999999999        0.0000000000000000     
  0.63699174999999997       0.14284276000000001        0.0000000000000000     
  0.15620682999999999       0.64648446999999998        0.0000000000000000     
  0.36426062999999997       0.85756310999999996        0.0000000000000000     
  0.63489340999999999       0.40519052000000000        0.0000000000000000     
  0.52518872999999999       0.65957078000000002        0.0000000000000000     
  0.32158959999999998       0.42298103999999997        0.0000000000000000     
  0.58861710000000000       0.31711036999999997        0.0000000000000000     
  0.42078418000000001       0.69497151999999995        0.0000000000000000     
  0.48608786999999998       0.89334152000000000        0.0000000000000000     
   9.7084320000000002E-002  0.50000000000000000        0.0000000000000000     
  0.90291568000000000       0.50000000000000000        0.0000000000000000     
  0.51392453000000005       0.10668648999999999        0.0000000000000000     
  0.59792566999999996       0.73122754000000001        0.0000000000000000     
  0.74510058999999995       0.41124730999999998        0.0000000000000000     
  0.73212551999999997       0.90191560000000004        0.0000000000000000     
   9.7784830000000003E-002  0.26957329000000002        0.0000000000000000     
  0.26711221000000002        9.8671499999999995E-002   0.0000000000000000     
  0.90191560000000004       0.26787448000000003        0.0000000000000000     
  0.90118569000000004       0.73039821000000005        0.0000000000000000     
  0.73122947000000005        9.8017859999999998E-002   0.0000000000000000     
   9.8084400000000002E-002  0.73212551999999997        0.0000000000000000     
  0.26957329000000002       0.90221516999999996        0.0000000000000000     
  0.39283522999999998       0.25360379000000000        0.0000000000000000     
  0.74480864000000002       0.60495284999999999        0.0000000000000000     
  0.25505132000000003       0.60593640999999998        0.0000000000000000     
  0.52159297999999998       0.40671636000000000        0.0000000000000000     
  0.40768852000000000       0.47699891000000000        0.0000000000000000     
   9.1467049999999994E-002   9.1876959999999994E-002   0.0000000000000000     
  0.90842484999999995       0.90819225000000003        0.0000000000000000     
  0.90820104999999995        9.1566729999999999E-002   0.0000000000000000     
   9.1807449999999999E-002  0.90843574000000005        0.0000000000000000     
  0.27098960000000000       0.20527094000000001        0.0000000000000000     
  0.73457293999999995       0.79835387000000002        0.0000000000000000     
  0.79817773000000003       0.25713470999999999        0.0000000000000000     
  0.20747797000000001       0.72863946000000002        0.0000000000000000     
  0.20175195000000001       0.27583914999999998        0.0000000000000000     
  0.79603889000000005       0.72159035000000005        0.0000000000000000     
  0.71761666000000002       0.19748431999999999        0.0000000000000000     
  0.28462607000000001       0.80251899999999998        0.0000000000000000     
  0.69134598999999997       0.49261972999999998        0.0000000000000000     
  0.44720578999999999       0.58582935999999997        0.0000000000000000     
  0.24242269999999999       0.37228174000000003        0.0000000000000000     
  0.38265623999999998       0.93072131999999996        0.0000000000000000     
  0.60971754000000000       0.91988369000000003        0.0000000000000000     
   7.9163609999999995E-002  0.60979116000000000        0.0000000000000000     
  0.92010649000000000       0.61081183999999999        0.0000000000000000     
  0.61954008999999999        7.1530830000000004E-002   0.0000000000000000     
  0.91882012999999996       0.38917363999999999        0.0000000000000000     
  0.39086346000000000        8.0652249999999995E-002   0.0000000000000000     
   7.9183480000000001E-002  0.38966213000000000        0.0000000000000000     
  0.59114111999999996       0.49294315000000000        0.0000000000000000     
  0.63337980999999999       0.64485914000000000        0.0000000000000000     
  0.50012352000000004       0.29676539000000002        0.0000000000000000     
  0.82552601000000003       0.92753492000000004        0.0000000000000000     
  0.92774772999999999       0.82498556999999995        0.0000000000000000     
   7.1970870000000006E-002  0.17510291000000000        0.0000000000000000     
  0.17422821999999999        7.2635640000000001E-002   0.0000000000000000     
  0.82510813000000005        7.2134840000000006E-002   0.0000000000000000     
  0.92754665000000003       0.17446275999999999        0.0000000000000000     
  0.17501022999999999       0.92789951999999998        0.0000000000000000     
   7.2464680000000004E-002  0.82554053000000005        0.0000000000000000     
  0.30731587999999999       0.50885354999999999        0.0000000000000000     
  0.59033407999999998       0.22171178999999999        0.0000000000000000     
  0.40109191999999999       0.78725542000000004        0.0000000000000000     
  0.35420917000000002       0.63754104000000000        0.0000000000000000     
  0.15983976999999999       0.56665573000000002        0.0000000000000000     
  0.84108459999999996       0.56757886999999996        0.0000000000000000     
  0.83902096000000004       0.43344338999999998        0.0000000000000000     
  0.43230028999999998       0.16004268999999999        0.0000000000000000     
  0.57536027999999995       0.83041363999999995        0.0000000000000000     
  0.15771898000000001       0.42747892999999998        0.0000000000000000     
  0.34021692999999997       0.34221559000000001        0.0000000000000000     
  0.56002271999999997       0.57501117999999996        0.0000000000000000     
  0.65344329000000001       0.78147597999999996        0.0000000000000000     
   0.0000000000000000        0.0000000000000000        0.0000000000000000     
   1.0000000000000000        0.0000000000000000        0.0000000000000000     
   1.0000000000000000        1.0000000000000000        0.0000000000000000     
   0.0000000000000000        1.0000000000000000        0.0000000000000000     
  0.11111111000000000        0.0000000000000000        0.0000000000000000     
  0.22222222000000000        0.0000000000000000        0.0000000000000000     
  0.33333332999999998        0.0000000000000000        0.0000000000000000     
  0.44444444000000000        0.0000000000000000        0.0000000000000000     
  0.55555555999999995        0.0000000000000000        0.0000000000000000     
  0.66666667000000002        0.0000000000000000        0.0000000000000000     
  0.77777777999999997        0.0000000000000000        0.0000000000000000     
  0.88888889000000004        0.0000000000000000        0.0000000000000000     
   1.0000000000000000       0.11111111000000000        0.0000000000000000     
   1.0000000000000000       0.22222222000000000        0.0000000000000000     
   1.0000000000000000       0.33333332999999998        0.0000000000000000     
   1.0000000000000000       0.44444444000000000        0.0000000000000000     
   1.0000000000000000       0.55555555999999995        0.0000000000000000     
   1.0000000000000000       0.66666667000000002        0.0000000000000000     
   1.0000000000000000       0.77777777999999997        0.0000000000000000     
   1.0000000000000000       0.88888889000000004        0.0000000000000000     
  0.88888889000000004        1.0000000000000000        0.0000000000000000     
  0.77777777999999997        1.0000000000000000        0.0000000000000000     
  0.66666667000000002        1.0000000000000000        0.0000000000000000     
  0.55555555999999995        1.0000000000000000        0.0000000000000000     
  0.44444444000000000        1.0000000000000000        0.0000000000000000     
  0.33333332999999998        1.0000000000000000        0.0000000000000000     
  0.22222222000000000        1.0000000000000000        0.0000000000000000     
  0.11111111000000000        1.0000000000000000        0.0000000000000000     
   0.0000000000000000       0.11111111000000000        0.0000000000000000     
   0.0000000000000000       0.22222222000000000        0.0000000000000000     
[...]
 CELL_DATA         354
 SCALARS E float
 LOOKUP_TABLE default
    0.71529775739956968916E+00
    0.71317824754763914363E+00
    0.65580314327027244836E+00
    0.60042175724085078414E+00
    0.74255493664312932633E+00
    0.73695888743673010346E+00
    0.70718806716612281349E+00
    0.72684505841965219020E+00
    0.70046802863889334745E+00
    0.68750303142142343837E+00
    0.63636562430221677023E+00
    0.65968577438044340155E+00
    0.63502306436818611868E+00
    0.63332065700042006196E+00
    0.64786297763171041275E+00
    0.64003689066056157486E+00
    0.65974715738576916735E+00
    0.68947350394015882724E+00
    0.72831148264765666056E+00
    0.71064878713877521754E+00
    0.71961049763063145157E+00
    0.71504540912511393991E+00
    0.69341227241565117634E+00
    0.70438057787593633119E+00
    0.68406890711002776850E+00
    0.69167318696128543554E+00
    0.71010311052419794464E+00
    0.70404152392329888421E+00
    0.71164607881022634572E+00
    0.72219104293999014654E+00
    0.72702479322702895370E+00
    0.72891997314721812540E+00
    0.71641868395919794388E+00
    0.71247251992540372445E+00
    0.69276232801814030537E+00
    0.70372221286085767655E+00
    0.67193199753864019108E+00
    0.67947670978334517855E+00
    0.68993349488755317811E+00
    0.68426962995103046694E+00
    0.69181929578685019688E+00
    0.69523724108560014390E+00
    0.69430633977418021452E+00
    0.69619806999841982176E+00
    0.69282649101698989824E+00
    0.68709034677095648380E+00
    0.67488453859583552585E+00
    0.68035578575492894338E+00
    0.66403955190604757597E+00
    0.65156290288227802776E+00
    0.62689513939476337878E+00
    0.63964066026374166718E+00
    0.72226548708220217332E+00
    0.72554641632621608149E+00
    0.72057077438473926545E+00
    0.72251097536688491108E+00
    0.71653076191342557344E+00
    0.71930938889081708076E+00
    0.72128874744030346822E+00
    0.72257946353023327912E+00
    0.71570453224455443664E+00
    0.71349450368935185551E+00
    0.69563172854139010415E+00
    0.70733412667605477520E+00
    0.68035687604956485153E+00
    0.66694360862926260758E+00
    0.63580423510956873834E+00
    0.65143985692359507311E+00
    0.62560877652651236680E+00
    0.66819097343972599923E+00
    0.70650267512679187920E+00
    0.64404261774822835207E+00
    0.69368883968577776944E+00
    0.65681320342194271511E+00
    0.69579098530709382331E+00
    0.72587374093470191649E+00
    0.72501110094110521320E+00
    0.69060911306424332956E+00
    0.73167312457940658632E+00
    0.72140915313772790984E+00
    0.74657697222462848785E+00
    0.73800301503937015823E+00
    0.73386830233880084862E+00
    0.72979395876853336844E+00
    0.64853076120891306466E+00
    0.66061640678483168898E+00
    0.73977713811079504058E+00
    0.63704623843963648078E+00
    0.64442060740356499338E+00
    0.62901113686574483541E+00
    0.68186779182164536373E+00
    0.76041468257616506854E+00
    0.75526935391415372933E+00
    0.75010120179975103838E+00
    0.74662662820450576007E+00
    0.75160821124718635300E+00
    0.76104999243731319414E+00
    0.72327323224607953378E+00
    0.66901305572578151359E+00
    0.70641777864160248956E+00
    0.69263333728416176527E+00
    0.69998903772096865428E+00
    0.70431978109362780582E+00
    0.65187599708603993776E+00
    0.65384838687004487312E+00
    0.63429909276294971221E+00
    0.62790394767580881563E+00
    0.63214695886020377813E+00
    0.74190627830567779100E+00
    0.74094594808398617225E+00
    0.75876703438478787511E+00
    0.74221206181640453359E+00
    0.75408263786117613048E+00
    0.74643367628763868105E+00
    0.73557673956332614296E+00
    0.74868759201799606195E+00
    0.74442534820051187161E+00
    0.72509187888313564319E+00
    0.74241454037981369218E+00
    0.73068163237465255655E+00
    0.73252205296448047456E+00
    0.73448106318234085421E+00
    0.74057772513324748864E+00
    0.71973358631394690477E+00
    0.75404786880412788541E+00
    0.75281648738418294187E+00
    0.71361043133393098348E+00
    0.72480230419148905519E+00
    0.73911431223254075995E+00
    0.73135538639737918132E+00
    0.74050884952061979405E+00
    0.74230275706943815717E+00
    0.74631392675661145653E+00
    0.73209723704430162972E+00
    0.73038254931566748418E+00
    0.70321938788431148648E+00
    0.68071742693705861171E+00
    0.70873021955536230632E+00
    0.69712392426765579234E+00
    0.68243834911883538563E+00
    0.68437105089248806422E+00
    0.69117674352301372576E+00
    0.71471016982406354590E+00
    0.70767435107500464841E+00
    0.68261391929780956822E+00
    0.73792360206476281803E+00
    0.73422737041166119543E+00
    0.68419759364466337104E+00
    0.68900774099584494170E+00
    0.66155922489702212452E+00
    0.63832311904809568848E+00
    0.64942132985807798917E+00
    0.66136096968310065236E+00
    0.64300980862893197809E+00
    0.64390144372260849082E+00
    0.72891107084765083268E+00
    0.68150747732838046211E+00
    0.65812534276820944257E+00
    0.72399301476452937454E+00
    0.69816574879874515602E+00
    0.75598659739193341256E+00
    0.67906526133761258013E+00
    0.70299412185700393962E+00
    0.72192634672232192106E+00
    0.73442006524392466904E+00
    0.75506022690141216813E+00
    0.75481258891674030131E+00
    0.75741494841922707426E+00
    0.74479899859156839526E+00
    0.74858320901625652333E+00
    0.73560224617311498196E+00
    0.67008812267110529071E+00
    0.70524581296265664854E+00
    0.71934140910533295177E+00
    0.67092923492748735015E+00
    0.76062930634559688947E+00
    0.73492297492350677768E+00
    0.72159953732304060736E+00
    0.76363568538083903547E+00
    0.74110508289440413243E+00
    0.65055684751046438663E+00
    0.71253233417810490913E+00
    0.67231346028520189151E+00
    0.71986441843175552613E+00
    0.68157276131365485128E+00
    0.76405327976948800295E+00
    0.72522676335829183714E+00
    0.74410595156445435983E+00
    0.76057631751415111232E+00
    0.73138782070672980762E+00
    0.63846384629906482999E+00
    0.67784096390740444793E+00
    0.62752075680167107574E+00
    0.64485097570899063690E+00
    0.63669011915604523111E+00
    0.75110304672493422018E+00
    0.73786263429094900435E+00
    0.74089995065104330418E+00
    0.75657254344390834078E+00
    0.74408200770077659314E+00
    0.72539602596533314660E+00
    0.73543349380900013834E+00
    0.73248754004563165765E+00
    0.72362021142241639282E+00
    0.73627344046016629520E+00
    0.69588514154389446986E+00
    0.62580411629311283317E+00
    0.64459552173827561194E+00
    0.64276776932314638735E+00
    0.63376248195640816352E+00
    0.73709021369292249126E+00
    0.73114176482631543230E+00
    0.71597114686794660621E+00
    0.72681958965956339203E+00
    0.71470547672253115223E+00
    0.67381730097092396026E+00
    0.72789915987412334708E+00
    0.70782167468989676262E+00
    0.69229788062872343879E+00
    0.70552268534863404881E+00
    0.74484325805459028480E+00
    0.76569785324455419406E+00
    0.72263857529440134186E+00
    0.74665393539582103344E+00
    0.74008017221713695566E+00
    0.71161877085621161321E+00
    0.73945161102666412400E+00
    0.75518529061597561292E+00
    0.75393501354872893838E+00
    0.74857835939319339325E+00
    0.75785521966216962131E+00
    0.74883059843357657748E+00
    0.76423190145090991177E+00
    0.74459504759813455177E+00
    0.73895488185791124991E+00
    0.73102503855557643409E+00
    0.74115729004237695943E+00
    0.63012012416136364834E+00
    0.68853713390382376147E+00
    0.67511404881638292785E+00
    0.67268365893786330467E+00
    0.73378655924120894660E+00
    0.74638310903451787759E+00
    0.73576248615936257202E+00
    0.65452123478358104069E+00
    0.65537116066952116888E+00
    0.75046588757759291610E+00
    0.74277317667305864379E+00
    0.71232063904889630912E+00
    0.74860629174555892718E+00
    0.75704491576678289988E+00
    0.73667184067055702101E+00
    0.73325237117963459887E+00
    0.73843414406410290418E+00
    0.72173438998428329771E+00
    0.71111822734407315050E+00
    0.71985909089427513319E+00
    0.70186566222893431721E+00
    0.75689733854212026820E+00
    0.76339410632322479699E+00
    0.72474147623009232966E+00
    0.67712769656176696742E+00
    0.69372557622993791249E+00
    0.67534268551053533436E+00
    0.74116991806600540649E+00
    0.74350782689592953556E+00
    0.69255416315833073782E+00
    0.73155713054502924386E+00
    0.72152680990401796279E+00
    0.68318871417469040352E+00
    0.67072541436084787136E+00
    0.66571325800795666527E+00
    0.64678172969372327294E+00
    0.64053581225525735299E+00
    0.72645751174648698356E+00
    0.71552028701721681614E+00
    0.72805699122812750357E+00
    0.71031400572402636495E+00
    0.74057410603403150962E+00
    0.76026373648213807499E+00
    0.75597433779504497053E+00
    0.73453524592307029017E+00
    0.65467762944182783524E+00
    0.61841964431926754742E+00
    0.67176417500742335864E+00
    0.69107744223633982283E+00
    0.68197672097503336808E+00
    0.74563757635771377164E+00
    0.74667218716823124947E+00
    0.70816293018772502599E+00
    0.71841623216501349081E+00
    0.72441230240253962069E+00
    0.72766973356192909961E+00
    0.66824132217552434376E+00
    0.67299828165791775181E+00
    0.73373981820202149873E+00
    0.75170045567903331918E+00
    0.75353796022467556259E+00
    0.65726050868765417690E+00
    0.74720160955102410405E+00
    0.72510732790290866046E+00
    0.60886275855176208438E+00
    0.73571290989365445423E+00
    0.65010176336371128247E+00
    0.71512725999138360145E+00
    0.71029283712629753822E+00
    0.71160194383652308758E+00
    0.71340756510584868444E+00
    0.75260239418283914059E+00
    0.75315335360202828596E+00
    0.74669588730624036899E+00
    0.72728972102406863609E+00
    0.69660404679223231206E+00
    0.76050694287257891713E+00
    0.67261892358697372707E+00
    0.72314996982490331590E+00
    0.67884779484336721378E+00
    0.74825523894627754551E+00
    0.72483428059540755406E+00
    0.70050588049164086435E+00
    0.72384111607760415197E+00
    0.71167131679403050626E+00
    0.65750224141311985893E+00
    0.63434705955783554643E+00
    0.58269541175641426101E+00
    0.59204388735235047303E+00
    0.72878933927125189030E+00
    0.69785070545168559342E+00
    0.66824928191446042458E+00
    0.63893493115927280090E+00
    0.62944545253073169722E+00
    0.64909050338489215903E+00
    0.69763441633961031929E+00
    0.70152539964293914032E+00
    0.68640401687485685933E+00
    0.69094047073158548766E+00
    0.70368083802214620448E+00
    0.71423244728878243492E+00
    0.71021243385069476872E+00
    0.69677586448267048169E+00
    0.65749904952743165598E+00
    0.66694262464282239034E+00
    0.67222802793328573223E+00
    0.67007231215915408207E+00
    0.66192959571307807831E+00
    0.64458631507189534382E+00
    0.62107369497103703804E+00
    0.70754697083886386455E+00
    0.70497965874308066159E+00
    0.70471195763706462323E+00
    0.70186082189136544951E+00
    0.69168798644242146523E+00
    0.66851622642898334004E+00
    0.63958486326356811524E+00
