# vtk DataFile Version 3.0
LAPLACIEN  2D
ASCII
DATASET UNSTRUCTURED_GRID
 POINTS         391  float
  0.50371505999999999       0.50367786999999997        0.0000000000000000     
  0.29013556000000001       0.29014535000000002        0.0000000000000000     
  0.70165584999999997       0.71206597999999999        0.0000000000000000     
  0.70304188999999995       0.30176619999999998        0.0000000000000000     
  0.30920671999999999       0.71149227999999998        0.0000000000000000     
  0.79044983999999996       0.49884783999999999        0.0000000000000000     
  0.49102621000000002       0.20968644000000000        0.0000000000000000     
  0.49912957000000002       0.77208717000000004        0.0000000000000000     
  0.21724072999999999       0.48989389000000000        0.0000000000000000     
  0.83255933999999998       0.83046598000000005        0.0000000000000000     
  0.16646774000000000       0.17015694000000001        0.0000000000000000     
  0.83054514999999995       0.16736480000000001        0.0000000000000000     
  0.16953130999999999       0.83265739000000005        0.0000000000000000     
  0.42166445000000002       0.36345201999999999        0.0000000000000000     
  0.64462200999999997       0.56347807999999999        0.0000000000000000     
  0.35324633999999999       0.56311191000000005        0.0000000000000000     
  0.65456411000000003       0.84856860999999995        0.0000000000000000     
  0.35141477999999998       0.15563974000000000        0.0000000000000000     
  0.15290967000000000       0.35206625000000003        0.0000000000000000     
  0.82942241000000005       0.34936866000000000        0.0000000000000000     
  0.84390527000000004       0.64441694999999999        0.0000000000000000     
  0.63699174999999997       0.14284276000000001        0.0000000000000000     
  0.15620682999999999       0.64648446999999998        0.0000000000000000     
  0.36426062999999997       0.85756310999999996        0.0000000000000000     
  0.63489340999999999       0.40519052000000000        0.0000000000000000     
  0.52518872999999999       0.65957078000000002        0.0000000000000000     
  0.32158959999999998       0.42298103999999997        0.0000000000000000     
  0.58861710000000000       0.31711036999999997        0.0000000000000000     
  0.42078418000000001       0.69497151999999995        0.0000000000000000     
  0.48608786999999998       0.89334152000000000        0.0000000000000000     
   9.7084320000000002E-002  0.50000000000000000        0.0000000000000000     
  0.90291568000000000       0.50000000000000000        0.0000000000000000     
  0.51392453000000005       0.10668648999999999        0.0000000000000000     
  0.59792566999999996       0.73122754000000001        0.0000000000000000     
  0.74510058999999995       0.41124730999999998        0.0000000000000000     
  0.73212551999999997       0.90191560000000004        0.0000000000000000     
   9.7784830000000003E-002  0.26957329000000002        0.0000000000000000     
  0.26711221000000002        9.8671499999999995E-002   0.0000000000000000     
  0.90191560000000004       0.26787448000000003        0.0000000000000000     
  0.90118569000000004       0.73039821000000005        0.0000000000000000     
  0.73122947000000005        9.8017859999999998E-002   0.0000000000000000     
   9.8084400000000002E-002  0.73212551999999997        0.0000000000000000     
  0.26957329000000002       0.90221516999999996        0.0000000000000000     
  0.39283522999999998       0.25360379000000000        0.0000000000000000     
  0.74480864000000002       0.60495284999999999        0.0000000000000000     
  0.25505132000000003       0.60593640999999998        0.0000000000000000     
  0.52159297999999998       0.40671636000000000        0.0000000000000000     
  0.40768852000000000       0.47699891000000000        0.0000000000000000     
   9.1467049999999994E-002   9.1876959999999994E-002   0.0000000000000000     
  0.90842484999999995       0.90819225000000003        0.0000000000000000     
  0.90820104999999995        9.1566729999999999E-002   0.0000000000000000     
   9.1807449999999999E-002  0.90843574000000005        0.0000000000000000     
  0.27098960000000000       0.20527094000000001        0.0000000000000000     
  0.73457293999999995       0.79835387000000002        0.0000000000000000     
  0.79817773000000003       0.25713470999999999        0.0000000000000000     
  0.20747797000000001       0.72863946000000002        0.0000000000000000     
  0.20175195000000001       0.27583914999999998        0.0000000000000000     
  0.79603889000000005       0.72159035000000005        0.0000000000000000     
  0.71761666000000002       0.19748431999999999        0.0000000000000000     
  0.28462607000000001       0.80251899999999998        0.0000000000000000     
  0.69134598999999997       0.49261972999999998        0.0000000000000000     
  0.44720578999999999       0.58582935999999997        0.0000000000000000     
  0.24242269999999999       0.37228174000000003        0.0000000000000000     
  0.38265623999999998       0.93072131999999996        0.0000000000000000     
  0.60971754000000000       0.91988369000000003        0.0000000000000000     
   7.9163609999999995E-002  0.60979116000000000        0.0000000000000000     
  0.92010649000000000       0.61081183999999999        0.0000000000000000     
  0.61954008999999999        7.1530830000000004E-002   0.0000000000000000     
  0.91882012999999996       0.38917363999999999        0.0000000000000000     
  0.39086346000000000        8.0652249999999995E-002   0.0000000000000000     
   7.9183480000000001E-002  0.38966213000000000        0.0000000000000000     
  0.59114111999999996       0.49294315000000000        0.0000000000000000     
  0.63337980999999999       0.64485914000000000        0.0000000000000000     
  0.50012352000000004       0.29676539000000002        0.0000000000000000     
  0.82552601000000003       0.92753492000000004        0.0000000000000000     
  0.92774772999999999       0.82498556999999995        0.0000000000000000     
   7.1970870000000006E-002  0.17510291000000000        0.0000000000000000     
  0.17422821999999999        7.2635640000000001E-002   0.0000000000000000     
  0.82510813000000005        7.2134840000000006E-002   0.0000000000000000     
  0.92754665000000003       0.17446275999999999        0.0000000000000000     
  0.17501022999999999       0.92789951999999998        0.0000000000000000     
   7.2464680000000004E-002  0.82554053000000005        0.0000000000000000     
  0.30731587999999999       0.50885354999999999        0.0000000000000000     
  0.59033407999999998       0.22171178999999999        0.0000000000000000     
  0.40109191999999999       0.78725542000000004        0.0000000000000000     
  0.35420917000000002       0.63754104000000000        0.0000000000000000     
  0.15983976999999999       0.56665573000000002        0.0000000000000000     
  0.84108459999999996       0.56757886999999996        0.0000000000000000     
  0.83902096000000004       0.43344338999999998        0.0000000000000000     
  0.43230028999999998       0.16004268999999999        0.0000000000000000     
  0.57536027999999995       0.83041363999999995        0.0000000000000000     
  0.15771898000000001       0.42747892999999998        0.0000000000000000     
  0.34021692999999997       0.34221559000000001        0.0000000000000000     
  0.56002271999999997       0.57501117999999996        0.0000000000000000     
  0.65344329000000001       0.78147597999999996        0.0000000000000000     
   0.0000000000000000        0.0000000000000000        0.0000000000000000     
   1.0000000000000000        0.0000000000000000        0.0000000000000000     
   1.0000000000000000        1.0000000000000000        0.0000000000000000     
   0.0000000000000000        1.0000000000000000        0.0000000000000000     
  0.11111111000000000        0.0000000000000000        0.0000000000000000     
  0.22222222000000000        0.0000000000000000        0.0000000000000000     
  0.33333332999999998        0.0000000000000000        0.0000000000000000     
  0.44444444000000000        0.0000000000000000        0.0000000000000000     
  0.55555555999999995        0.0000000000000000        0.0000000000000000     
  0.66666667000000002        0.0000000000000000        0.0000000000000000     
  0.77777777999999997        0.0000000000000000        0.0000000000000000     
  0.88888889000000004        0.0000000000000000        0.0000000000000000     
   1.0000000000000000       0.11111111000000000        0.0000000000000000     
   1.0000000000000000       0.22222222000000000        0.0000000000000000     
   1.0000000000000000       0.33333332999999998        0.0000000000000000     
   1.0000000000000000       0.44444444000000000        0.0000000000000000     
   1.0000000000000000       0.55555555999999995        0.0000000000000000     
   1.0000000000000000       0.66666667000000002        0.0000000000000000     
   1.0000000000000000       0.77777777999999997        0.0000000000000000     
   1.0000000000000000       0.88888889000000004        0.0000000000000000     
  0.88888889000000004        1.0000000000000000        0.0000000000000000     
  0.77777777999999997        1.0000000000000000        0.0000000000000000     
  0.66666667000000002        1.0000000000000000        0.0000000000000000     
  0.55555555999999995        1.0000000000000000        0.0000000000000000     
  0.44444444000000000        1.0000000000000000        0.0000000000000000     
  0.33333332999999998        1.0000000000000000        0.0000000000000000     
  0.22222222000000000        1.0000000000000000        0.0000000000000000     
  0.11111111000000000        1.0000000000000000        0.0000000000000000     
   0.0000000000000000       0.11111111000000000        0.0000000000000000     
   0.0000000000000000       0.22222222000000000        0.0000000000000000     
[...]
 CELL_DATA         354
 SCALARS E float
 LOOKUP_TABLE default
    0.71438488937157063052E+00
    0.71191375048080807186E+00
    0.65506224704766535805E+00
    0.59973070185115617825E+00
    0.74235169119874644394E+00
    0.73645552692070970213E+00
    0.70584019827637822786E+00
    0.72592697816774576225E+00
    0.69940064108103494611E+00
    0.68639096055780079997E+00
    0.63454154530949524737E+00
    0.65804310733043525072E+00
    0.63319534331445948006E+00
    0.63123989127303725688E+00
    0.64625266811885651030E+00
    0.63830616973678144799E+00
    0.65793066365486740921E+00
    0.68815430255296627937E+00
    0.72782315713817058445E+00
    0.70977835370580433239E+00
    0.71864110879228193518E+00
    0.71400654008895958480E+00
    0.69185044787712657310E+00
    0.70304251191486699657E+00
    0.68235086516783283184E+00
    0.69011761488446166091E+00
    0.70898464689478790657E+00
    0.70281142107879479575E+00
    0.71041046166580590349E+00
    0.72115217789736130172E+00
    0.72630803202478455560E+00
    0.72817367634514362784E+00
    0.71549492712850260023E+00
    0.71179521594358341474E+00
    0.69256236595921938370E+00
    0.70335160571725141576E+00
    0.67132938257871010990E+00
    0.67890614832099849263E+00
    0.68904378030780488729E+00
    0.68351938016168156675E+00
    0.69090351340491629184E+00
    0.69441353119550319750E+00
    0.69329496786128896879E+00
    0.69532881038994631684E+00
    0.69179435684710344212E+00
    0.68616184799691526397E+00
    0.67406276176998292105E+00
    0.67952749360956465896E+00
    0.66319767636019133494E+00
    0.65088657109138314816E+00
    0.62645134804395885553E+00
    0.63916971282332857296E+00
    0.72142643084503643713E+00
    0.72477434244270633190E+00
    0.71946354307668836103E+00
    0.72152878471072268152E+00
    0.71538424928296884264E+00
    0.71828634346734143712E+00
    0.72040274066310150403E+00
    0.72168959764495588249E+00
    0.71473867325036921638E+00
    0.71265873660971745807E+00
    0.69487126213432603983E+00
    0.70663171087439913265E+00
    0.67951690562419930774E+00
    0.66631385707495061066E+00
    0.63550453432704634427E+00
    0.65104381810799649699E+00
    0.62557948335255286754E+00
    0.66840109834808270062E+00
    0.70726440649103350378E+00
    0.64391264877287834878E+00
    0.69433937453134375595E+00
    0.65613154683705732229E+00
    0.69548773023371690538E+00
    0.72625099252765112912E+00
    0.72561934729092691931E+00
    0.69075328363950083688E+00
    0.73125657416331601990E+00
    0.72101891755981117882E+00
    0.74646619017450788203E+00
    0.73766860040926918174E+00
    0.73393335357239475325E+00
    0.72916379110575202382E+00
    0.64896774566350967639E+00
    0.66387642868652052552E+00
    0.74512862714869265712E+00
    0.63830071319722692103E+00
    0.64500683260263780294E+00
    0.63127975127551583245E+00
    0.68595490074748255438E+00
    0.76087660070104745635E+00
    0.75557713564033002207E+00
    0.75021600116436837347E+00
    0.74664405679742362754E+00
    0.75173600837889498205E+00
    0.76159495589830061846E+00
    0.72357004420311099580E+00
    0.66884555013625568431E+00
    0.70646041512360957526E+00
    0.69309197621073348472E+00
    0.69954198972219361341E+00
    0.70451199824150234630E+00
    0.65322050847882939806E+00
    0.65537344386211193736E+00
    0.63778652647385869479E+00
    0.63120639725191174385E+00
    0.63280416015106011329E+00
    0.74195065802994553117E+00
    0.74078039913614124323E+00
    0.75918275576828064821E+00
    0.74204882101326097299E+00
    0.75422372312784724535E+00
    0.74634882323609863519E+00
    0.73612658114482709681E+00
    0.74871964728173723280E+00
    0.74458410824915099990E+00
    0.72500487829492132885E+00
    0.74287743886686641304E+00
    0.73021633449360645596E+00
    0.73222155062444871376E+00
    0.73442364262853720991E+00
    0.74044795690976672464E+00
    0.71951827642895338499E+00
    0.75434328308900644444E+00
    0.75302854414422815132E+00
    0.71314450183681743489E+00
    0.72443537782816591619E+00
    0.73887406125586840844E+00
    0.73120902995484160503E+00
    0.74015869480099427680E+00
    0.74275893086689337430E+00
    0.74663893910168521728E+00
    0.73151257066287911357E+00
    0.72982536196418357211E+00
    0.70335620479784921599E+00
    0.68071311048857663373E+00
    0.70834864232189587163E+00
    0.69782672077266005850E+00
    0.68314832273055736689E+00
    0.68370090967164953710E+00
    0.69049649278716296319E+00
    0.71454306997453553851E+00
    0.70745691047546677144E+00
    0.68240439119602291917E+00
    0.73817087697776706534E+00
    0.73441137203231965369E+00
    0.68376972955813875021E+00
    0.68859025877725643650E+00
    0.66156906623529088129E+00
    0.63884140352855256495E+00
    0.65148528811373296321E+00
    0.66188854408132224982E+00
    0.64541077794501211518E+00
    0.64372996791383352289E+00
    0.72982652017320204241E+00
    0.68175104862347324364E+00
    0.65788209416360654558E+00
    0.72469244811013500129E+00
    0.69851975116467523996E+00
    0.75674409385894747526E+00
    0.67825747124583135594E+00
    0.70260149216737188826E+00
    0.72187750689668128690E+00
    0.73456289988479239739E+00
    0.75556098433170193474E+00
    0.75508952465417711331E+00
    0.75797647964864012238E+00
    0.74473259524260781994E+00
    0.74858367081627252837E+00
    0.73648128129576562184E+00
    0.67020453535679858081E+00
    0.70551654575792410728E+00
    0.72026051757496833972E+00
    0.67111148957138744287E+00
    0.76106784712945241278E+00
    0.73483493722298565132E+00
    0.72113670843591726189E+00
    0.76414963964178828082E+00
    0.74093540793268264366E+00
    0.65028699707347381587E+00
    0.71312860818654388861E+00
    0.67253226167153046244E+00
    0.72046563998193280387E+00
    0.68133877632276207414E+00
    0.76458557911248847816E+00
    0.72480183464766456680E+00
    0.74399109663855900187E+00
    0.76106795153369766194E+00
    0.73112365590681105409E+00
    0.63906232841802612654E+00
    0.67868361014525668828E+00
    0.62775065511339755986E+00
    0.64502732725658984414E+00
    0.63808558836162121430E+00
    0.75154003296463123274E+00
    0.73743545162993384690E+00
    0.74070635483302549318E+00
    0.75701326553096770500E+00
    0.74387164325301036172E+00
    0.72500171845932548376E+00
    0.73568727599737393508E+00
    0.73220397655284930050E+00
    0.72341624560338035899E+00
    0.73602630310902694699E+00
    0.70097589616499522691E+00
    0.62676710926657630552E+00
    0.64716629451518614680E+00
    0.64337924492547848843E+00
    0.63481500090218867527E+00
    0.73714300646014097040E+00
    0.73098444644827864636E+00
    0.71598311344150677993E+00
    0.72698258670394566572E+00
    0.71498677641019625639E+00
    0.67355140682588143797E+00
    0.72856512036866039050E+00
    0.70777768892115022759E+00
    0.69262446347097805788E+00
    0.71077529555691509877E+00
    0.75043121706865234533E+00
    0.77098540434617268691E+00
    0.72240301768195835930E+00
    0.74663201141915069847E+00
    0.74002751283843415386E+00
    0.71100743475327488063E+00
    0.73964524612209581189E+00
    0.75557058434701884764E+00
    0.75426864394195691776E+00
    0.74868776878515741480E+00
    0.75820286947645731956E+00
    0.74879338254106564410E+00
    0.76474969979418716548E+00
    0.74468848800010223332E+00
    0.73943673056070580163E+00
    0.73107029229752762411E+00
    0.74203132196374643748E+00
    0.62949016898663190389E+00
    0.68903061410243615637E+00
    0.67757018043090488923E+00
    0.67360715490183431520E+00
    0.73379765432271470971E+00
    0.74629783223050272234E+00
    0.73534088607253034198E+00
    0.65467783749426389228E+00
    0.65467344127737781001E+00
    0.75076960300649775437E+00
    0.74318626295838019491E+00
    0.71195001693282478072E+00
    0.74883222339474553308E+00
    0.75733758904323578154E+00
    0.73619105214036295592E+00
    0.73371087211287788765E+00
    0.73933525541823041927E+00
    0.72100552002607953828E+00
    0.71190592943757380340E+00
    0.72002419844870824139E+00
    0.70129909132230050517E+00
    0.75717120122421011086E+00
    0.76393673974936715521E+00
    0.72418863085773188537E+00
    0.67792830302241446905E+00
    0.69456764279368010673E+00
    0.67454087156325914787E+00
    0.74138507560384991901E+00
    0.74392733538887934053E+00
    0.69208397113965358649E+00
    0.73166992705275102349E+00
    0.72174259003338847585E+00
    0.68274712561791317533E+00
    0.67034111134895757456E+00
    0.66801258633579951862E+00
    0.64714554277304814356E+00
    0.64005097295594204354E+00
    0.72597901762244765322E+00
    0.71633225386918097932E+00
    0.72842851886833592800E+00
    0.70979797184060999804E+00
    0.74034615246461066285E+00
    0.76114816188722222989E+00
    0.75652051538050812951E+00
    0.73409327231866339236E+00
    0.65549570177981730801E+00
    0.61893258526031091904E+00
    0.67569034956098039668E+00
    0.69106868668104493025E+00
    0.68125655080868474656E+00
    0.74547178596474972245E+00
    0.74651296442413750398E+00
    0.70805306876197615651E+00
    0.71837009144270802530E+00
    0.72428941112124900492E+00
    0.72746724944296103921E+00
    0.66816814186151174404E+00
    0.67292869455671122658E+00
    0.73411990750454614307E+00
    0.75177123783059995876E+00
    0.75363229850977564439E+00
    0.65785221116874792457E+00
    0.74738116932635301204E+00
    0.72515951719798399377E+00
    0.61097782379171328149E+00
    0.73534822958877055221E+00
    0.65022058043413066830E+00
    0.71468174087235247782E+00
    0.71080024411801778772E+00
    0.71080565545474183597E+00
    0.71397448937218033205E+00
    0.75297583929668943092E+00
    0.75335535076611992444E+00
    0.74689930450144059737E+00
    0.72788129234707743542E+00
    0.69740191814088459132E+00
    0.76093335957325392016E+00
    0.67278403494201244328E+00
    0.72373836698276561297E+00
    0.68336757989472263208E+00
    0.74820081622769141205E+00
    0.72436947031436549338E+00
    0.69927976718216677821E+00
    0.72291401175033609405E+00
    0.71017811187595603073E+00
    0.65706967821031547761E+00
    0.63341660590157156108E+00
    0.58197527762583578514E+00
    0.59149481861436914443E+00
    0.72799778143584048529E+00
    0.69616274417628098981E+00
    0.66603583022324441831E+00
    0.63629329289892577748E+00
    0.62650879656846203414E+00
    0.64651130104527321230E+00
    0.69615835704273931750E+00
    0.69977501714810241840E+00
    0.68418000502934750440E+00
    0.68882577210559692293E+00
    0.70192899169694267236E+00
    0.71284137511170841961E+00
    0.70910366459853613197E+00
    0.69617160291223523227E+00
    0.65651087897685667105E+00
    0.66567800828575340866E+00
    0.67093503400144838267E+00
    0.66873254202563314763E+00
    0.66072413302255283973E+00
    0.64345290012386657796E+00
    0.62026416341883683359E+00
    0.70625089277133390464E+00
    0.70343539465511661923E+00
    0.70321841215691160976E+00
    0.70050903771675276932E+00
    0.69050655026664109482E+00
    0.66743498425425362708E+00
    0.63891190877162040707E+00
