# vtk DataFile Version 3.0
LAPLACIEN  2D
ASCII
DATASET UNSTRUCTURED_GRID
 POINTS         391  float
  0.50371505999999999       0.50367786999999997        0.0000000000000000     
  0.29013556000000001       0.29014535000000002        0.0000000000000000     
  0.70165584999999997       0.71206597999999999        0.0000000000000000     
  0.70304188999999995       0.30176619999999998        0.0000000000000000     
  0.30920671999999999       0.71149227999999998        0.0000000000000000     
  0.79044983999999996       0.49884783999999999        0.0000000000000000     
  0.49102621000000002       0.20968644000000000        0.0000000000000000     
  0.49912957000000002       0.77208717000000004        0.0000000000000000     
  0.21724072999999999       0.48989389000000000        0.0000000000000000     
  0.83255933999999998       0.83046598000000005        0.0000000000000000     
  0.16646774000000000       0.17015694000000001        0.0000000000000000     
  0.83054514999999995       0.16736480000000001        0.0000000000000000     
  0.16953130999999999       0.83265739000000005        0.0000000000000000     
  0.42166445000000002       0.36345201999999999        0.0000000000000000     
  0.64462200999999997       0.56347807999999999        0.0000000000000000     
  0.35324633999999999       0.56311191000000005        0.0000000000000000     
  0.65456411000000003       0.84856860999999995        0.0000000000000000     
  0.35141477999999998       0.15563974000000000        0.0000000000000000     
  0.15290967000000000       0.35206625000000003        0.0000000000000000     
  0.82942241000000005       0.34936866000000000        0.0000000000000000     
  0.84390527000000004       0.64441694999999999        0.0000000000000000     
  0.63699174999999997       0.14284276000000001        0.0000000000000000     
  0.15620682999999999       0.64648446999999998        0.0000000000000000     
  0.36426062999999997       0.85756310999999996        0.0000000000000000     
  0.63489340999999999       0.40519052000000000        0.0000000000000000     
  0.52518872999999999       0.65957078000000002        0.0000000000000000     
  0.32158959999999998       0.42298103999999997        0.0000000000000000     
  0.58861710000000000       0.31711036999999997        0.0000000000000000     
  0.42078418000000001       0.69497151999999995        0.0000000000000000     
  0.48608786999999998       0.89334152000000000        0.0000000000000000     
   9.7084320000000002E-002  0.50000000000000000        0.0000000000000000     
  0.90291568000000000       0.50000000000000000        0.0000000000000000     
  0.51392453000000005       0.10668648999999999        0.0000000000000000     
  0.59792566999999996       0.73122754000000001        0.0000000000000000     
  0.74510058999999995       0.41124730999999998        0.0000000000000000     
  0.73212551999999997       0.90191560000000004        0.0000000000000000     
   9.7784830000000003E-002  0.26957329000000002        0.0000000000000000     
  0.26711221000000002        9.8671499999999995E-002   0.0000000000000000     
  0.90191560000000004       0.26787448000000003        0.0000000000000000     
  0.90118569000000004       0.73039821000000005        0.0000000000000000     
  0.73122947000000005        9.8017859999999998E-002   0.0000000000000000     
   9.8084400000000002E-002  0.73212551999999997        0.0000000000000000     
  0.26957329000000002       0.90221516999999996        0.0000000000000000     
  0.39283522999999998       0.25360379000000000        0.0000000000000000     
  0.74480864000000002       0.60495284999999999        0.0000000000000000     
  0.25505132000000003       0.60593640999999998        0.0000000000000000     
  0.52159297999999998       0.40671636000000000        0.0000000000000000     
  0.40768852000000000       0.47699891000000000        0.0000000000000000     
   9.1467049999999994E-002   9.1876959999999994E-002   0.0000000000000000     
  0.90842484999999995       0.90819225000000003        0.0000000000000000     
  0.90820104999999995        9.1566729999999999E-002   0.0000000000000000     
   9.1807449999999999E-002  0.90843574000000005        0.0000000000000000     
  0.27098960000000000       0.20527094000000001        0.0000000000000000     
  0.73457293999999995       0.79835387000000002        0.0000000000000000     
  0.79817773000000003       0.25713470999999999        0.0000000000000000     
  0.20747797000000001       0.72863946000000002        0.0000000000000000     
  0.20175195000000001       0.27583914999999998        0.0000000000000000     
  0.79603889000000005       0.72159035000000005        0.0000000000000000     
  0.71761666000000002       0.19748431999999999        0.0000000000000000     
  0.28462607000000001       0.80251899999999998        0.0000000000000000     
  0.69134598999999997       0.49261972999999998        0.0000000000000000     
  0.44720578999999999       0.58582935999999997        0.0000000000000000     
  0.24242269999999999       0.37228174000000003        0.0000000000000000     
  0.38265623999999998       0.93072131999999996        0.0000000000000000     
  0.60971754000000000       0.91988369000000003        0.0000000000000000     
   7.9163609999999995E-002  0.60979116000000000        0.0000000000000000     
  0.92010649000000000       0.61081183999999999        0.0000000000000000     
  0.61954008999999999        7.1530830000000004E-002   0.0000000000000000     
  0.91882012999999996       0.38917363999999999        0.0000000000000000     
  0.39086346000000000        8.0652249999999995E-002   0.0000000000000000     
   7.9183480000000001E-002  0.38966213000000000        0.0000000000000000     
  0.59114111999999996       0.49294315000000000        0.0000000000000000     
  0.63337980999999999       0.64485914000000000        0.0000000000000000     
  0.50012352000000004       0.29676539000000002        0.0000000000000000     
  0.82552601000000003       0.92753492000000004        0.0000000000000000     
  0.92774772999999999       0.82498556999999995        0.0000000000000000     
   7.1970870000000006E-002  0.17510291000000000        0.0000000000000000     
  0.17422821999999999        7.2635640000000001E-002   0.0000000000000000     
  0.82510813000000005        7.2134840000000006E-002   0.0000000000000000     
  0.92754665000000003       0.17446275999999999        0.0000000000000000     
  0.17501022999999999       0.92789951999999998        0.0000000000000000     
   7.2464680000000004E-002  0.82554053000000005        0.0000000000000000     
  0.30731587999999999       0.50885354999999999        0.0000000000000000     
  0.59033407999999998       0.22171178999999999        0.0000000000000000     
  0.40109191999999999       0.78725542000000004        0.0000000000000000     
  0.35420917000000002       0.63754104000000000        0.0000000000000000     
  0.15983976999999999       0.56665573000000002        0.0000000000000000     
  0.84108459999999996       0.56757886999999996        0.0000000000000000     
  0.83902096000000004       0.43344338999999998        0.0000000000000000     
  0.43230028999999998       0.16004268999999999        0.0000000000000000     
  0.57536027999999995       0.83041363999999995        0.0000000000000000     
  0.15771898000000001       0.42747892999999998        0.0000000000000000     
  0.34021692999999997       0.34221559000000001        0.0000000000000000     
  0.56002271999999997       0.57501117999999996        0.0000000000000000     
  0.65344329000000001       0.78147597999999996        0.0000000000000000     
   0.0000000000000000        0.0000000000000000        0.0000000000000000     
   1.0000000000000000        0.0000000000000000        0.0000000000000000     
   1.0000000000000000        1.0000000000000000        0.0000000000000000     
   0.0000000000000000        1.0000000000000000        0.0000000000000000     
  0.11111111000000000        0.0000000000000000        0.0000000000000000     
  0.22222222000000000        0.0000000000000000        0.0000000000000000     
  0.33333332999999998        0.0000000000000000        0.0000000000000000     
  0.44444444000000000        0.0000000000000000        0.0000000000000000     
  0.55555555999999995        0.0000000000000000        0.0000000000000000     
  0.66666667000000002        0.0000000000000000        0.0000000000000000     
  0.77777777999999997        0.0000000000000000        0.0000000000000000     
  0.88888889000000004        0.0000000000000000        0.0000000000000000     
   1.0000000000000000       0.11111111000000000        0.0000000000000000     
   1.0000000000000000       0.22222222000000000        0.0000000000000000     
   1.0000000000000000       0.33333332999999998        0.0000000000000000     
   1.0000000000000000       0.44444444000000000        0.0000000000000000     
   1.0000000000000000       0.55555555999999995        0.0000000000000000     
   1.0000000000000000       0.66666667000000002        0.0000000000000000     
   1.0000000000000000       0.77777777999999997        0.0000000000000000     
   1.0000000000000000       0.88888889000000004        0.0000000000000000     
  0.88888889000000004        1.0000000000000000        0.0000000000000000     
  0.77777777999999997        1.0000000000000000        0.0000000000000000     
  0.66666667000000002        1.0000000000000000        0.0000000000000000     
  0.55555555999999995        1.0000000000000000        0.0000000000000000     
  0.44444444000000000        1.0000000000000000        0.0000000000000000     
  0.33333332999999998        1.0000000000000000        0.0000000000000000     
  0.22222222000000000        1.0000000000000000        0.0000000000000000     
  0.11111111000000000        1.0000000000000000        0.0000000000000000     
   0.0000000000000000       0.11111111000000000        0.0000000000000000     
   0.0000000000000000       0.22222222000000000        0.0000000000000000     
[...]
 CELL_DATA         354
 SCALARS E float
 LOOKUP_TABLE default
    0.69871178194669658623E+00
    0.65266550654482569094E+00
    0.64629393150402680845E+00
    0.59934998171195374983E+00
    0.70959368762545493858E+00
    0.68198244907775773527E+00
    0.69303714027892460159E+00
    0.67363660689098980860E+00
    0.69507510294625363123E+00
    0.68253458598614735742E+00
    0.65622324359981765163E+00
    0.67101776398359658238E+00
    0.64621772474252014984E+00
    0.65185100351005886843E+00
    0.66004268561645385027E+00
    0.65628893049166658891E+00
    0.66939630602336708254E+00
    0.67644620670602928492E+00
    0.72516431920910329190E+00
    0.71816074044001576571E+00
    0.68585696869449674917E+00
    0.69754501245673927734E+00
    0.69094988258727019215E+00
    0.67319295227775133306E+00
    0.68607250544307873952E+00
    0.68157604849259634250E+00
    0.69564274050571672792E+00
    0.70941114288581053060E+00
    0.64538922321774283564E+00
    0.66843040649917662144E+00
    0.69755768356861735935E+00
    0.68698691803000966338E+00
    0.70003356848524278533E+00
    0.69344790831630076511E+00
    0.66635422461315951814E+00
    0.67960498680717651432E+00
    0.65808992792818243878E+00
    0.66233994817377372932E+00
    0.67802409625724646691E+00
    0.67114241752077807845E+00
    0.67802292842436484577E+00
    0.67990968125776851672E+00
    0.68218665438121761646E+00
    0.68195806092790589581E+00
    0.68282258707333443049E+00
    0.67670416877532224564E+00
    0.66290726193359206242E+00
    0.66728907479850296802E+00
    0.65464596383949325009E+00
    0.64286163070306079348E+00
    0.61495210106012032636E+00
    0.62365623830776573122E+00
    0.70348428442148525086E+00
    0.70553388793119875544E+00
    0.70530683293843754456E+00
    0.70538378973980497832E+00
    0.69757942487190294223E+00
    0.69892391091732897213E+00
    0.70085944524624965712E+00
    0.70194777259213936293E+00
    0.69831758152837997145E+00
    0.69495842628848569777E+00
    0.67801228399579926975E+00
    0.68704379566678042135E+00
    0.66879384753963766475E+00
    0.65492866050630560437E+00
    0.61453275244688765344E+00
    0.63365900930047447392E+00
    0.61126434981684152348E+00
    0.64369230248763231739E+00
    0.66493368398767982441E+00
    0.62355422924917469629E+00
    0.66214591548117462949E+00
    0.65645735774224567294E+00
    0.68199854833618589467E+00
    0.68216994447271239732E+00
    0.67793653073444937185E+00
    0.66560304321787111537E+00
    0.71447281886727220801E+00
    0.71740061098086393976E+00
    0.66777036261010158658E+00
    0.69587172550960696427E+00
    0.73813446838794694038E+00
    0.66161137235616640506E+00
    0.62270029253912928535E+00
    0.58121562608052379506E+00
    0.43299886587477542932E+00
    0.62602140945577788855E+00
    0.61067682179985416369E+00
    0.63588565894184834182E+00
    0.53227591573814103665E+00
    0.70628609554302623774E+00
    0.68271988712544884326E+00
    0.68812568180726241263E+00
    0.70622763163923429897E+00
    0.67775177087478444271E+00
    0.73313706990262383911E+00
    0.68962139723806248348E+00
    0.65672878078121033063E+00
    0.67977571885304621802E+00
    0.66466728618882520152E+00
    0.68137059617618789265E+00
    0.67927653204065341352E+00
    0.61011777132099898058E+00
    0.60466355699348039998E+00
    0.60809565430351986137E+00
    0.61487668738326184403E+00
    0.59944034435231818847E+00
    0.73748050792798580666E+00
    0.68993627443854110837E+00
    0.71673785125618383329E+00
    0.68846716788324646696E+00
    0.67432351027346570937E+00
    0.67002652548022545442E+00
    0.68624430088243904002E+00
    0.68583348696106738451E+00
    0.73086526966691423013E+00
    0.71781074912888132022E+00
    0.73753102972089390477E+00
    0.64438325098827897719E+00
    0.75268576357097261020E+00
    0.69821065568719586913E+00
    0.70224780846062384576E+00
    0.69166681409814045889E+00
    0.70898571315284342198E+00
    0.70861730963448144038E+00
    0.68811634298464385839E+00
    0.69645317929581751493E+00
    0.67669910895155638286E+00
    0.73041761143476957585E+00
    0.67339146612427713823E+00
    0.73407264882309064546E+00
    0.74262490252383039913E+00
    0.65090754308783660420E+00
    0.69061192441488383764E+00
    0.67629419525630996013E+00
    0.65954596669665588315E+00
    0.68474215754621803320E+00
    0.66059326369084903074E+00
    0.64276675389766713131E+00
    0.67172888826993437661E+00
    0.67855562844770944686E+00
    0.68371584246209016200E+00
    0.67853363272913191917E+00
    0.65957181854446789160E+00
    0.69761380648303839003E+00
    0.69531391214362781028E+00
    0.66364052775425441677E+00
    0.66728458285777714210E+00
    0.64129317192308299411E+00
    0.59913267619707977207E+00
    0.62625042003583220040E+00
    0.62559061491103840069E+00
    0.61776041380270863002E+00
    0.62606172223856237924E+00
    0.67775224474333306546E+00
    0.66098800465307050445E+00
    0.65172680749116773669E+00
    0.67874538956604579809E+00
    0.67610711554538283075E+00
    0.72886675407431011919E+00
    0.66988691216899853842E+00
    0.67557740620371387053E+00
    0.67854768722785352431E+00
    0.73399929566931931824E+00
    0.70879813605481456484E+00
    0.71477419101028116799E+00
    0.71249827213964689321E+00
    0.70681592544031235370E+00
    0.70774000355978139432E+00
    0.67748554120820325686E+00
    0.64814883742777684716E+00
    0.67788929996809366152E+00
    0.66676921981338632683E+00
    0.64509774798497043768E+00
    0.69720496018542166272E+00
    0.73129506515951692158E+00
    0.72552340743960286318E+00
    0.67817972352435751393E+00
    0.71612904617893291537E+00
    0.63995432555813980269E+00
    0.67033405811034074695E+00
    0.65071740989963955393E+00
    0.67526749082132619950E+00
    0.67519774081816585909E+00
    0.68358016754948025540E+00
    0.72106484946749738185E+00
    0.69395327333374934309E+00
    0.71660007020399218991E+00
    0.72514147916597160304E+00
    0.59650681385717974070E+00
    0.62342614513045369051E+00
    0.58755879202039396070E+00
    0.61869496035816828883E+00
    0.57774457584997995774E+00
    0.70901829683318207120E+00
    0.68562655465742183836E+00
    0.70474963558237269101E+00
    0.71452458607776081490E+00
    0.69174625337969930516E+00
    0.69282863074469114295E+00
    0.69750531476672750220E+00
    0.70283168267851192645E+00
    0.69375982136959091218E+00
    0.69893439437044369011E+00
    0.51279764125510562955E+00
    0.62785170329365858066E+00
    0.58686640039727588913E+00
    0.61402057492585782050E+00
    0.62278399340784917904E+00
    0.72741187876195234630E+00
    0.72598536199078389508E+00
    0.68942144037852826077E+00
    0.69030411918012124506E+00
    0.67659432134122732272E+00
    0.65985154925569156070E+00
    0.67554770634184602152E+00
    0.67246299889514515868E+00
    0.66339194359686504132E+00
    0.46849622328140438920E+00
    0.38344791939476363662E+00
    0.35918746832744036235E+00
    0.72246968395013477782E+00
    0.64021360995169473984E+00
    0.75668515524548451978E+00
    0.69090156094849619617E+00
    0.69828281914803169705E+00
    0.70787417562215937394E+00
    0.70798169749236550263E+00
    0.71034862689786792966E+00
    0.69462317766657855067E+00
    0.67133191810769576868E+00
    0.71365197370469468652E+00
    0.71456665020893095353E+00
    0.71241042482015271009E+00
    0.72778990257422704335E+00
    0.68407711228315548624E+00
    0.63020501115921834234E+00
    0.65343101079250986984E+00
    0.60814446299777191740E+00
    0.62021597010830531449E+00
    0.74114650296549478004E+00
    0.66660525064581943600E+00
    0.67533234348362414234E+00
    0.63004615348901771288E+00
    0.66123621421774303464E+00
    0.70722123216900967257E+00
    0.69888048756339404832E+00
    0.68629101003239734169E+00
    0.73409844243057031932E+00
    0.67626755754605472060E+00
    0.65595114737463466881E+00
    0.70492201522322339713E+00
    0.68148027350439543959E+00
    0.70470748605307143020E+00
    0.67134477144320925390E+00
    0.67721540301433624798E+00
    0.68357723613528154072E+00
    0.68764031189455887549E+00
    0.69969201924166590789E+00
    0.69965633438344210226E+00
    0.62961536885757185544E+00
    0.64961929473272117530E+00
    0.66864839252652275015E+00
    0.70143077622984617570E+00
    0.70040968398454517274E+00
    0.67159823035377630429E+00
    0.69497698009364916594E+00
    0.68418198463033352841E+00
    0.66191770340929401151E+00
    0.66528294122092834773E+00
    0.60109909323098376088E+00
    0.61598591043228423381E+00
    0.63200281682114078929E+00
    0.71402427971073989532E+00
    0.67409602901573550948E+00
    0.68845428555522825143E+00
    0.69888856241889107945E+00
    0.68230443067109358690E+00
    0.73852866495369284827E+00
    0.74644956773087323132E+00
    0.66589407697515756723E+00
    0.61932878239638566864E+00
    0.61685020046908067837E+00
    0.54412475736631671364E+00
    0.66698381769388315199E+00
    0.66990259421954712060E+00
    0.70729321366696096263E+00
    0.67785746919604994432E+00
    0.67846711779213952909E+00
    0.68754539016777072025E+00
    0.71229972716007994293E+00
    0.71767177019091565882E+00
    0.63873815963113145244E+00
    0.64517598568343625942E+00
    0.70803242044588265980E+00
    0.68347096574276311465E+00
    0.69685181808598373188E+00
    0.62014241417944193646E+00
    0.70836480581310157234E+00
    0.69843290697038884485E+00
    0.62979279191043957553E+00
    0.70184123362840000748E+00
    0.62653563183106253387E+00
    0.71688407174509949371E+00
    0.67725759300089416470E+00
    0.73276078346791928553E+00
    0.67652308258887927650E+00
    0.70950420366590882804E+00
    0.71486144768135195804E+00
    0.74322076447519014319E+00
    0.68315520663296380732E+00
    0.65007691840146408779E+00
    0.68902261589563607025E+00
    0.65408487940488413415E+00
    0.67946623358161839512E+00
    0.49201189765263647624E+00
    0.69963565054222465189E+00
    0.70057346813179099954E+00
    0.68974235390932370215E+00
    0.70805369492252601127E+00
    0.66768967635231335489E+00
    0.64024393345798125132E+00
    0.63202615559740649154E+00
    0.58687318843773983446E+00
    0.58377578833753163146E+00
    0.68133568431972579837E+00
    0.70094771484262530237E+00
    0.67568520511707841347E+00
    0.66038133587222058729E+00
    0.65746022975992257642E+00
    0.66837381387232075447E+00
    0.69707426596581900657E+00
    0.68759910578272220860E+00
    0.70380958784745284440E+00
    0.69624589011967052965E+00
    0.67770719408023760710E+00
    0.68898778316849662584E+00
    0.69607039207117404889E+00
    0.67777321928540001927E+00
    0.65151418338412936393E+00
    0.66413075188389858461E+00
    0.66949988914042479760E+00
    0.66802330674749788031E+00
    0.65944459369292030004E+00
    0.64393863880963175816E+00
    0.61963913307435813937E+00
    0.69693882447367583310E+00
    0.69842721156870712917E+00
    0.69813049099468771352E+00
    0.69342067583730071512E+00
    0.68315078637929271821E+00
    0.66220611765149983707E+00
    0.63154369923332565051E+00
