# vtk DataFile Version 3.0
LAPLACIEN  2D
ASCII
DATASET UNSTRUCTURED_GRID
 POINTS         391  float
  0.50371505999999999       0.50367786999999997        0.0000000000000000     
  0.29013556000000001       0.29014535000000002        0.0000000000000000     
  0.70165584999999997       0.71206597999999999        0.0000000000000000     
  0.70304188999999995       0.30176619999999998        0.0000000000000000     
  0.30920671999999999       0.71149227999999998        0.0000000000000000     
  0.79044983999999996       0.49884783999999999        0.0000000000000000     
  0.49102621000000002       0.20968644000000000        0.0000000000000000     
  0.49912957000000002       0.77208717000000004        0.0000000000000000     
  0.21724072999999999       0.48989389000000000        0.0000000000000000     
  0.83255933999999998       0.83046598000000005        0.0000000000000000     
  0.16646774000000000       0.17015694000000001        0.0000000000000000     
  0.83054514999999995       0.16736480000000001        0.0000000000000000     
  0.16953130999999999       0.83265739000000005        0.0000000000000000     
  0.42166445000000002       0.36345201999999999        0.0000000000000000     
  0.64462200999999997       0.56347807999999999        0.0000000000000000     
  0.35324633999999999       0.56311191000000005        0.0000000000000000     
  0.65456411000000003       0.84856860999999995        0.0000000000000000     
  0.35141477999999998       0.15563974000000000        0.0000000000000000     
  0.15290967000000000       0.35206625000000003        0.0000000000000000     
  0.82942241000000005       0.34936866000000000        0.0000000000000000     
  0.84390527000000004       0.64441694999999999        0.0000000000000000     
  0.63699174999999997       0.14284276000000001        0.0000000000000000     
  0.15620682999999999       0.64648446999999998        0.0000000000000000     
  0.36426062999999997       0.85756310999999996        0.0000000000000000     
  0.63489340999999999       0.40519052000000000        0.0000000000000000     
  0.52518872999999999       0.65957078000000002        0.0000000000000000     
  0.32158959999999998       0.42298103999999997        0.0000000000000000     
  0.58861710000000000       0.31711036999999997        0.0000000000000000     
  0.42078418000000001       0.69497151999999995        0.0000000000000000     
  0.48608786999999998       0.89334152000000000        0.0000000000000000     
   9.7084320000000002E-002  0.50000000000000000        0.0000000000000000     
  0.90291568000000000       0.50000000000000000        0.0000000000000000     
  0.51392453000000005       0.10668648999999999        0.0000000000000000     
  0.59792566999999996       0.73122754000000001        0.0000000000000000     
  0.74510058999999995       0.41124730999999998        0.0000000000000000     
  0.73212551999999997       0.90191560000000004        0.0000000000000000     
   9.7784830000000003E-002  0.26957329000000002        0.0000000000000000     
  0.26711221000000002        9.8671499999999995E-002   0.0000000000000000     
  0.90191560000000004       0.26787448000000003        0.0000000000000000     
  0.90118569000000004       0.73039821000000005        0.0000000000000000     
  0.73122947000000005        9.8017859999999998E-002   0.0000000000000000     
   9.8084400000000002E-002  0.73212551999999997        0.0000000000000000     
  0.26957329000000002       0.90221516999999996        0.0000000000000000     
  0.39283522999999998       0.25360379000000000        0.0000000000000000     
  0.74480864000000002       0.60495284999999999        0.0000000000000000     
  0.25505132000000003       0.60593640999999998        0.0000000000000000     
  0.52159297999999998       0.40671636000000000        0.0000000000000000     
  0.40768852000000000       0.47699891000000000        0.0000000000000000     
   9.1467049999999994E-002   9.1876959999999994E-002   0.0000000000000000     
  0.90842484999999995       0.90819225000000003        0.0000000000000000     
  0.90820104999999995        9.1566729999999999E-002   0.0000000000000000     
   9.1807449999999999E-002  0.90843574000000005        0.0000000000000000     
  0.27098960000000000       0.20527094000000001        0.0000000000000000     
  0.73457293999999995       0.79835387000000002        0.0000000000000000     
  0.79817773000000003       0.25713470999999999        0.0000000000000000     
  0.20747797000000001       0.72863946000000002        0.0000000000000000     
  0.20175195000000001       0.27583914999999998        0.0000000000000000     
  0.79603889000000005       0.72159035000000005        0.0000000000000000     
  0.71761666000000002       0.19748431999999999        0.0000000000000000     
  0.28462607000000001       0.80251899999999998        0.0000000000000000     
  0.69134598999999997       0.49261972999999998        0.0000000000000000     
  0.44720578999999999       0.58582935999999997        0.0000000000000000     
  0.24242269999999999       0.37228174000000003        0.0000000000000000     
  0.38265623999999998       0.93072131999999996        0.0000000000000000     
  0.60971754000000000       0.91988369000000003        0.0000000000000000     
   7.9163609999999995E-002  0.60979116000000000        0.0000000000000000     
  0.92010649000000000       0.61081183999999999        0.0000000000000000     
  0.61954008999999999        7.1530830000000004E-002   0.0000000000000000     
  0.91882012999999996       0.38917363999999999        0.0000000000000000     
  0.39086346000000000        8.0652249999999995E-002   0.0000000000000000     
   7.9183480000000001E-002  0.38966213000000000        0.0000000000000000     
  0.59114111999999996       0.49294315000000000        0.0000000000000000     
  0.63337980999999999       0.64485914000000000        0.0000000000000000     
  0.50012352000000004       0.29676539000000002        0.0000000000000000     
  0.82552601000000003       0.92753492000000004        0.0000000000000000     
  0.92774772999999999       0.82498556999999995        0.0000000000000000     
   7.1970870000000006E-002  0.17510291000000000        0.0000000000000000     
  0.17422821999999999        7.2635640000000001E-002   0.0000000000000000     
  0.82510813000000005        7.2134840000000006E-002   0.0000000000000000     
  0.92754665000000003       0.17446275999999999        0.0000000000000000     
  0.17501022999999999       0.92789951999999998        0.0000000000000000     
   7.2464680000000004E-002  0.82554053000000005        0.0000000000000000     
  0.30731587999999999       0.50885354999999999        0.0000000000000000     
  0.59033407999999998       0.22171178999999999        0.0000000000000000     
  0.40109191999999999       0.78725542000000004        0.0000000000000000     
  0.35420917000000002       0.63754104000000000        0.0000000000000000     
  0.15983976999999999       0.56665573000000002        0.0000000000000000     
  0.84108459999999996       0.56757886999999996        0.0000000000000000     
  0.83902096000000004       0.43344338999999998        0.0000000000000000     
  0.43230028999999998       0.16004268999999999        0.0000000000000000     
  0.57536027999999995       0.83041363999999995        0.0000000000000000     
  0.15771898000000001       0.42747892999999998        0.0000000000000000     
  0.34021692999999997       0.34221559000000001        0.0000000000000000     
  0.56002271999999997       0.57501117999999996        0.0000000000000000     
  0.65344329000000001       0.78147597999999996        0.0000000000000000     
   0.0000000000000000        0.0000000000000000        0.0000000000000000     
   1.0000000000000000        0.0000000000000000        0.0000000000000000     
   1.0000000000000000        1.0000000000000000        0.0000000000000000     
   0.0000000000000000        1.0000000000000000        0.0000000000000000     
  0.11111111000000000        0.0000000000000000        0.0000000000000000     
  0.22222222000000000        0.0000000000000000        0.0000000000000000     
  0.33333332999999998        0.0000000000000000        0.0000000000000000     
  0.44444444000000000        0.0000000000000000        0.0000000000000000     
  0.55555555999999995        0.0000000000000000        0.0000000000000000     
  0.66666667000000002        0.0000000000000000        0.0000000000000000     
  0.77777777999999997        0.0000000000000000        0.0000000000000000     
  0.88888889000000004        0.0000000000000000        0.0000000000000000     
   1.0000000000000000       0.11111111000000000        0.0000000000000000     
   1.0000000000000000       0.22222222000000000        0.0000000000000000     
   1.0000000000000000       0.33333332999999998        0.0000000000000000     
   1.0000000000000000       0.44444444000000000        0.0000000000000000     
   1.0000000000000000       0.55555555999999995        0.0000000000000000     
   1.0000000000000000       0.66666667000000002        0.0000000000000000     
   1.0000000000000000       0.77777777999999997        0.0000000000000000     
   1.0000000000000000       0.88888889000000004        0.0000000000000000     
  0.88888889000000004        1.0000000000000000        0.0000000000000000     
  0.77777777999999997        1.0000000000000000        0.0000000000000000     
  0.66666667000000002        1.0000000000000000        0.0000000000000000     
  0.55555555999999995        1.0000000000000000        0.0000000000000000     
  0.44444444000000000        1.0000000000000000        0.0000000000000000     
  0.33333332999999998        1.0000000000000000        0.0000000000000000     
  0.22222222000000000        1.0000000000000000        0.0000000000000000     
  0.11111111000000000        1.0000000000000000        0.0000000000000000     
   0.0000000000000000       0.11111111000000000        0.0000000000000000     
   0.0000000000000000       0.22222222000000000        0.0000000000000000     
[...]
 CELL_DATA         354
 SCALARS E float
 LOOKUP_TABLE default
    0.71210456500753671616E+00
    0.70875583948952747271E+00
    0.65321218177857531817E+00
    0.59800521270060724710E+00
    0.74183216144149266569E+00
    0.73518645673938265439E+00
    0.70248387974856041360E+00
    0.72361737489699229364E+00
    0.69678888920955683872E+00
    0.68364207503057816684E+00
    0.63003401647579382328E+00
    0.65398633568755093481E+00
    0.62862580308100923787E+00
    0.62603890856934252263E+00
    0.64229423625599668668E+00
    0.63402834585687106728E+00
    0.65340027649671650334E+00
    0.68484458819763660564E+00
    0.72659238071417353577E+00
    0.70759092456790750880E+00
    0.71620429585938627515E+00
    0.71139536777675416168E+00
    0.68793588887597689752E+00
    0.69968901589442611400E+00
    0.67809095194330970546E+00
    0.68626296365402450483E+00
    0.70621493470114127255E+00
    0.69975467404415259143E+00
    0.70733942731824239747E+00
    0.71856464595339364365E+00
    0.72454283429850696585E+00
    0.72632170603336920767E+00
    0.71319022596605530229E+00
    0.71009297431421813940E+00
    0.69205619829383457908E+00
    0.70241953006385127178E+00
    0.66981859628948037244E+00
    0.67747335881960868420E+00
    0.68681536609520321690E+00
    0.68163842307026956124E+00
    0.68864011552739312627E+00
    0.69237746539026812087E+00
    0.69078286820803858070E+00
    0.69317021876397322266E+00
    0.68920610399879445040E+00
    0.68382966144521850627E+00
    0.67202264432533476146E+00
    0.67746671923029833096E+00
    0.66109083564326132088E+00
    0.64919097169629846888E+00
    0.62533857095159417483E+00
    0.63798802467495863144E+00
    0.71932180528196143499E+00
    0.72283392287530134901E+00
    0.71668655985100016004E+00
    0.71906490079029417029E+00
    0.71254614364087576206E+00
    0.71575577786750932408E+00
    0.71820429332454671645E+00
    0.71947855760624812582E+00
    0.71233595206599087390E+00
    0.71057701649259308319E+00
    0.69299217540680702054E+00
    0.70489092829175803434E+00
    0.67741675974206261301E+00
    0.66473337895479966964E+00
    0.63475074130926611993E+00
    0.65004951220119744359E+00
    0.62557421780524025134E+00
    0.66893933048039821987E+00
    0.70911151909524838821E+00
    0.64361286385025295864E+00
    0.69592111291304448173E+00
    0.65444077634684794109E+00
    0.69472329874375693404E+00
    0.72717910488798331858E+00
    0.72711748297564304799E+00
    0.69109160444789474731E+00
    0.73023169577484692283E+00
    0.72008482719131861050E+00
    0.74617512389562612451E+00
    0.73683148183443225587E+00
    0.73411472675945010913E+00
    0.72761411061924408106E+00
    0.65009899578336083348E+00
    0.67204910529064476599E+00
    0.75779154962192718514E+00
    0.64166228854510309887E+00
    0.64652516859733788479E+00
    0.63728388082976283879E+00
    0.69598317406145626673E+00
    0.76200459574441059551E+00
    0.75635235996930805236E+00
    0.75051146069728758015E+00
    0.74669806572430874603E+00
    0.75206554695435356983E+00
    0.76292846285620896651E+00
    0.72430186776961713591E+00
    0.66842818394762693046E+00
    0.70658942969926674671E+00
    0.69422031199962563885E+00
    0.69848791725481951254E+00
    0.70495928345086222855E+00
    0.65660552322159904115E+00
    0.65919340024098271869E+00
    0.64673159814525504885E+00
    0.63972293160026327818E+00
    0.63457113193830405606E+00
    0.74205814477259979256E+00
    0.74037834105733535406E+00
    0.76019180234289651654E+00
    0.74164481443012808537E+00
    0.75456005608614107327E+00
    0.74614257453442367485E+00
    0.73746637512711477047E+00
    0.74878748736787303919E+00
    0.74500250031367076797E+00
    0.72481392704636538049E+00
    0.74401387747340153034E+00
    0.72910550114917016540E+00
    0.73150408285659118679E+00
    0.73428953403898544749E+00
    0.74013595535249065982E+00
    0.71897353560668664230E+00
    0.75506600012533686694E+00
    0.75354895105839148073E+00
    0.71200324712559659446E+00
    0.72353226628486844163E+00
    0.73829600210721968434E+00
    0.73086503954409287598E+00
    0.73927524683456113941E+00
    0.74388025546707003954E+00
    0.74744487129789594082E+00
    0.73007409866334294080E+00
    0.72846009009977308324E+00
    0.70371733447627049518E+00
    0.68072988974253256789E+00
    0.70738815789544562396E+00
    0.69954080219172831701E+00
    0.68489203518152941275E+00
    0.68208879627288332426E+00
    0.68886883671551579766E+00
    0.71413521804652724256E+00
    0.70692322855311762186E+00
    0.68187489305503445891E+00
    0.73878074538984905839E+00
    0.73486628328072345351E+00
    0.68271146689667383534E+00
    0.68755946956055347119E+00
    0.66163107684067745673E+00
    0.64021113617586011824E+00
    0.65679788260622062879E+00
    0.66324238872062590833E+00
    0.65157003457171702721E+00
    0.64337092397384620934E+00
    0.73206930042154483296E+00
    0.68236331470344890882E+00
    0.65730809888645780337E+00
    0.72641897877030459085E+00
    0.69938931602367548912E+00
    0.75859729191480029797E+00
    0.67627032318616131512E+00
    0.70164150920133783185E+00
    0.72172222702737021116E+00
    0.73491629663676949491E+00
    0.75678519897390195137E+00
    0.75577488785735802423E+00
    0.75934175234494805107E+00
    0.74457609147617787038E+00
    0.74858559700849802709E+00
    0.73861196096906933661E+00
    0.67050788945542749708E+00
    0.70618765392222460076E+00
    0.72250211238543515790E+00
    0.67159470014579891739E+00
    0.76212573235025105056E+00
    0.73463153316777973778E+00
    0.72000003045023208692E+00
    0.76539327804691970059E+00
    0.74049982872126951516E+00
    0.64966006050797797666E+00
    0.71458425901358657573E+00
    0.67308446209933125992E+00
    0.72192960960515906166E+00
    0.68076447860152489167E+00
    0.76587754488804615782E+00
    0.72373816348976038881E+00
    0.74369427821250033706E+00
    0.76226596875239982509E+00
    0.73046460429912185575E+00
    0.64065054319916758807E+00
    0.68070821211790621952E+00
    0.62840037100658607816E+00
    0.64555711967880813340E+00
    0.64157342528215766109E+00
    0.75260032285165978649E+00
    0.73637183050323751221E+00
    0.74022154631644754286E+00
    0.75808769389264052396E+00
    0.74334250520723221811E+00
    0.72405431711926349081E+00
    0.73629555954320158317E+00
    0.73149666494252896243E+00
    0.72291047557457510653E+00
    0.73542961688005814569E+00
    0.71338487534039485283E+00
    0.62941785593491428319E+00
    0.65365588040623889832E+00
    0.64493946876196917017E+00
    0.63759117011187871338E+00
    0.73727116608403042708E+00
    0.73061146497247231313E+00
    0.71604595978247842503E+00
    0.72740256697009519904E+00
    0.71571546495763016527E+00
    0.67293121229524044402E+00
    0.73019320401842879864E+00
    0.70766638180638397060E+00
    0.69342817623726271670E+00
    0.72349207485960487229E+00
    0.76354962048878949332E+00
    0.78314598991563955099E+00
    0.72181524004852293253E+00
    0.74658310113275616615E+00
    0.73988122613253826110E+00
    0.70949263794297379171E+00
    0.74012645013005951000E+00
    0.75652188451564283955E+00
    0.75508287151032460471E+00
    0.74895061769293524989E+00
    0.75906825650734710553E+00
    0.74869532673002969769E+00
    0.76600503528390873065E+00
    0.74490989329091439330E+00
    0.74063615081464195811E+00
    0.73119279961142247259E+00
    0.74415413553083264997E+00
    0.62807737301493093973E+00
    0.69024485314520089840E+00
    0.68360072877279076664E+00
    0.67590312221294424067E+00
    0.73383543922327998388E+00
    0.74608001923710598469E+00
    0.73430332638640827270E+00
    0.65509630169561616775E+00
    0.65296086289317267770E+00
    0.75152075682647456745E+00
    0.74420631394903291600E+00
    0.71103888749353993948E+00
    0.74938920248735685359E+00
    0.75806175065001968338E+00
    0.73500136423174478040E+00
    0.73484217640308724384E+00
    0.74155079676791679777E+00
    0.71920716355358038641E+00
    0.71381252209383461160E+00
    0.72044390844160233200E+00
    0.69994394315253138927E+00
    0.75783950758431239958E+00
    0.76527531435149509509E+00
    0.72281978536175683914E+00
    0.67988352972396282059E+00
    0.69663435258812556050E+00
    0.67259503241048823607E+00
    0.74190911582294205573E+00
    0.74496556986708872827E+00
    0.69091837659034005537E+00
    0.73194230809853866315E+00
    0.72227120407482314768E+00
    0.68165036336503970205E+00
    0.66938752991893035738E+00
    0.67369401074092405413E+00
    0.64814127202687210616E+00
    0.63891670173609171890E+00
    0.72478747474173710330E+00
    0.71831732040767548586E+00
    0.72938011278408332316E+00
    0.70854182250112318631E+00
    0.73979446841945140090E+00
    0.76330068160756392448E+00
    0.75787989868189431508E+00
    0.73302656855238346179E+00
    0.65756668542709362235E+00
    0.62039500439906070106E+00
    0.68538882088073549426E+00
    0.69105083086582719254E+00
    0.67946546380523031861E+00
    0.74504384178088656210E+00
    0.74609911867247769024E+00
    0.70776951225196937934E+00
    0.71824389800122190319E+00
    0.72396378829123120280E+00
    0.72694446930367206949E+00
    0.66797724178244444193E+00
    0.67274639228371468924E+00
    0.73504789499521017149E+00
    0.75193839355585612161E+00
    0.75384850805374936655E+00
    0.65937901257824560464E+00
    0.74782545906496522559E+00
    0.72531477541007716159E+00
    0.61663353739788506758E+00
    0.73445783253679275404E+00
    0.65054563279972310585E+00
    0.71357324235205754626E+00
    0.71207090200875255981E+00
    0.70887023441957974779E+00
    0.71536318713771884781E+00
    0.75388948367212171853E+00
    0.75384088328266274370E+00
    0.74738757122322374560E+00
    0.72932502651058739307E+00
    0.69934174115256664273E+00
    0.76197574465852935255E+00
    0.67318503741474899904E+00
    0.72518482070972145603E+00
    0.69442718934740899073E+00
    0.74806269107268974494E+00
    0.72320373143447014286E+00
    0.69622016507318074119E+00
    0.72059689875541377280E+00
    0.70644815662918425403E+00
    0.65598609015283548818E+00
    0.63109510412363445386E+00
    0.58017730342035300772E+00
    0.59012223716717138178E+00
    0.72601581874444653941E+00
    0.69197079626076285486E+00
    0.66050982531361501771E+00
    0.62969736752154137349E+00
    0.61917495503056718675E+00
    0.64008702324968014263E+00
    0.69246801263855883857E+00
    0.69540225360387042386E+00
    0.67862280436842936648E+00
    0.68354356083309653069E+00
    0.69756061510801437020E+00
    0.70936649563004416930E+00
    0.70634544322292025509E+00
    0.69465949334778875901E+00
    0.65404335263857082960E+00
    0.66252148225301554785E+00
    0.66770622720145600404E+00
    0.66538706222045873595E+00
    0.65771127572674215056E+00
    0.64062398442089640849E+00
    0.61824195604502341084E+00
    0.70301363889333823298E+00
    0.69957802719676709380E+00
    0.69948885782938230449E+00
    0.69713581513828914993E+00
    0.68755511336792030086E+00
    0.66473943842995741882E+00
    0.63723012139427992473E+00
