# vtk DataFile Version 3.0
LAPLACIEN  2D
ASCII
DATASET UNSTRUCTURED_GRID
 POINTS         391  float
  0.50371505999999999       0.50367786999999997        0.0000000000000000     
  0.29013556000000001       0.29014535000000002        0.0000000000000000     
  0.70165584999999997       0.71206597999999999        0.0000000000000000     
  0.70304188999999995       0.30176619999999998        0.0000000000000000     
  0.30920671999999999       0.71149227999999998        0.0000000000000000     
  0.79044983999999996       0.49884783999999999        0.0000000000000000     
  0.49102621000000002       0.20968644000000000        0.0000000000000000     
  0.49912957000000002       0.77208717000000004        0.0000000000000000     
  0.21724072999999999       0.48989389000000000        0.0000000000000000     
  0.83255933999999998       0.83046598000000005        0.0000000000000000     
  0.16646774000000000       0.17015694000000001        0.0000000000000000     
  0.83054514999999995       0.16736480000000001        0.0000000000000000     
  0.16953130999999999       0.83265739000000005        0.0000000000000000     
  0.42166445000000002       0.36345201999999999        0.0000000000000000     
  0.64462200999999997       0.56347807999999999        0.0000000000000000     
  0.35324633999999999       0.56311191000000005        0.0000000000000000     
  0.65456411000000003       0.84856860999999995        0.0000000000000000     
  0.35141477999999998       0.15563974000000000        0.0000000000000000     
  0.15290967000000000       0.35206625000000003        0.0000000000000000     
  0.82942241000000005       0.34936866000000000        0.0000000000000000     
  0.84390527000000004       0.64441694999999999        0.0000000000000000     
  0.63699174999999997       0.14284276000000001        0.0000000000000000     
  0.15620682999999999       0.64648446999999998        0.0000000000000000     
  0.36426062999999997       0.85756310999999996        0.0000000000000000     
  0.63489340999999999       0.40519052000000000        0.0000000000000000     
  0.52518872999999999       0.65957078000000002        0.0000000000000000     
  0.32158959999999998       0.42298103999999997        0.0000000000000000     
  0.58861710000000000       0.31711036999999997        0.0000000000000000     
  0.42078418000000001       0.69497151999999995        0.0000000000000000     
  0.48608786999999998       0.89334152000000000        0.0000000000000000     
   9.7084320000000002E-002  0.50000000000000000        0.0000000000000000     
  0.90291568000000000       0.50000000000000000        0.0000000000000000     
  0.51392453000000005       0.10668648999999999        0.0000000000000000     
  0.59792566999999996       0.73122754000000001        0.0000000000000000     
  0.74510058999999995       0.41124730999999998        0.0000000000000000     
  0.73212551999999997       0.90191560000000004        0.0000000000000000     
   9.7784830000000003E-002  0.26957329000000002        0.0000000000000000     
  0.26711221000000002        9.8671499999999995E-002   0.0000000000000000     
  0.90191560000000004       0.26787448000000003        0.0000000000000000     
  0.90118569000000004       0.73039821000000005        0.0000000000000000     
  0.73122947000000005        9.8017859999999998E-002   0.0000000000000000     
   9.8084400000000002E-002  0.73212551999999997        0.0000000000000000     
  0.26957329000000002       0.90221516999999996        0.0000000000000000     
  0.39283522999999998       0.25360379000000000        0.0000000000000000     
  0.74480864000000002       0.60495284999999999        0.0000000000000000     
  0.25505132000000003       0.60593640999999998        0.0000000000000000     
  0.52159297999999998       0.40671636000000000        0.0000000000000000     
  0.40768852000000000       0.47699891000000000        0.0000000000000000     
   9.1467049999999994E-002   9.1876959999999994E-002   0.0000000000000000     
  0.90842484999999995       0.90819225000000003        0.0000000000000000     
  0.90820104999999995        9.1566729999999999E-002   0.0000000000000000     
   9.1807449999999999E-002  0.90843574000000005        0.0000000000000000     
  0.27098960000000000       0.20527094000000001        0.0000000000000000     
  0.73457293999999995       0.79835387000000002        0.0000000000000000     
  0.79817773000000003       0.25713470999999999        0.0000000000000000     
  0.20747797000000001       0.72863946000000002        0.0000000000000000     
  0.20175195000000001       0.27583914999999998        0.0000000000000000     
  0.79603889000000005       0.72159035000000005        0.0000000000000000     
  0.71761666000000002       0.19748431999999999        0.0000000000000000     
  0.28462607000000001       0.80251899999999998        0.0000000000000000     
  0.69134598999999997       0.49261972999999998        0.0000000000000000     
  0.44720578999999999       0.58582935999999997        0.0000000000000000     
  0.24242269999999999       0.37228174000000003        0.0000000000000000     
  0.38265623999999998       0.93072131999999996        0.0000000000000000     
  0.60971754000000000       0.91988369000000003        0.0000000000000000     
   7.9163609999999995E-002  0.60979116000000000        0.0000000000000000     
  0.92010649000000000       0.61081183999999999        0.0000000000000000     
  0.61954008999999999        7.1530830000000004E-002   0.0000000000000000     
  0.91882012999999996       0.38917363999999999        0.0000000000000000     
  0.39086346000000000        8.0652249999999995E-002   0.0000000000000000     
   7.9183480000000001E-002  0.38966213000000000        0.0000000000000000     
  0.59114111999999996       0.49294315000000000        0.0000000000000000     
  0.63337980999999999       0.64485914000000000        0.0000000000000000     
  0.50012352000000004       0.29676539000000002        0.0000000000000000     
  0.82552601000000003       0.92753492000000004        0.0000000000000000     
  0.92774772999999999       0.82498556999999995        0.0000000000000000     
   7.1970870000000006E-002  0.17510291000000000        0.0000000000000000     
  0.17422821999999999        7.2635640000000001E-002   0.0000000000000000     
  0.82510813000000005        7.2134840000000006E-002   0.0000000000000000     
  0.92754665000000003       0.17446275999999999        0.0000000000000000     
  0.17501022999999999       0.92789951999999998        0.0000000000000000     
   7.2464680000000004E-002  0.82554053000000005        0.0000000000000000     
  0.30731587999999999       0.50885354999999999        0.0000000000000000     
  0.59033407999999998       0.22171178999999999        0.0000000000000000     
  0.40109191999999999       0.78725542000000004        0.0000000000000000     
  0.35420917000000002       0.63754104000000000        0.0000000000000000     
  0.15983976999999999       0.56665573000000002        0.0000000000000000     
  0.84108459999999996       0.56757886999999996        0.0000000000000000     
  0.83902096000000004       0.43344338999999998        0.0000000000000000     
  0.43230028999999998       0.16004268999999999        0.0000000000000000     
  0.57536027999999995       0.83041363999999995        0.0000000000000000     
  0.15771898000000001       0.42747892999999998        0.0000000000000000     
  0.34021692999999997       0.34221559000000001        0.0000000000000000     
  0.56002271999999997       0.57501117999999996        0.0000000000000000     
  0.65344329000000001       0.78147597999999996        0.0000000000000000     
   0.0000000000000000        0.0000000000000000        0.0000000000000000     
   1.0000000000000000        0.0000000000000000        0.0000000000000000     
   1.0000000000000000        1.0000000000000000        0.0000000000000000     
   0.0000000000000000        1.0000000000000000        0.0000000000000000     
  0.11111111000000000        0.0000000000000000        0.0000000000000000     
  0.22222222000000000        0.0000000000000000        0.0000000000000000     
  0.33333332999999998        0.0000000000000000        0.0000000000000000     
  0.44444444000000000        0.0000000000000000        0.0000000000000000     
  0.55555555999999995        0.0000000000000000        0.0000000000000000     
  0.66666667000000002        0.0000000000000000        0.0000000000000000     
  0.77777777999999997        0.0000000000000000        0.0000000000000000     
  0.88888889000000004        0.0000000000000000        0.0000000000000000     
   1.0000000000000000       0.11111111000000000        0.0000000000000000     
   1.0000000000000000       0.22222222000000000        0.0000000000000000     
   1.0000000000000000       0.33333332999999998        0.0000000000000000     
   1.0000000000000000       0.44444444000000000        0.0000000000000000     
   1.0000000000000000       0.55555555999999995        0.0000000000000000     
   1.0000000000000000       0.66666667000000002        0.0000000000000000     
   1.0000000000000000       0.77777777999999997        0.0000000000000000     
   1.0000000000000000       0.88888889000000004        0.0000000000000000     
  0.88888889000000004        1.0000000000000000        0.0000000000000000     
  0.77777777999999997        1.0000000000000000        0.0000000000000000     
  0.66666667000000002        1.0000000000000000        0.0000000000000000     
  0.55555555999999995        1.0000000000000000        0.0000000000000000     
  0.44444444000000000        1.0000000000000000        0.0000000000000000     
  0.33333332999999998        1.0000000000000000        0.0000000000000000     
  0.22222222000000000        1.0000000000000000        0.0000000000000000     
  0.11111111000000000        1.0000000000000000        0.0000000000000000     
   0.0000000000000000       0.11111111000000000        0.0000000000000000     
   0.0000000000000000       0.22222222000000000        0.0000000000000000     
[...]
 CELL_DATA         354
 SCALARS E float
 LOOKUP_TABLE default
    0.69420947727060888788E+00
    0.64369033861683355724E+00
    0.64309523449004524220E+00
    0.59737260215389975659E+00
    0.70402487290776516460E+00
    0.67062080796874967703E+00
    0.69359484014130212692E+00
    0.66703797559825706021E+00
    0.69202766170031027038E+00
    0.67844890748594965935E+00
    0.65330508722380387088E+00
    0.66783497881620335068E+00
    0.64274643082769966629E+00
    0.64868488804953505777E+00
    0.65696513650735266499E+00
    0.65331825600126758324E+00
    0.66646503043961269341E+00
    0.67267180479604204990E+00
    0.72311838177664300442E+00
    0.71630518292885714260E+00
    0.68005944638846604899E+00
    0.69386297625130610722E+00
    0.68750171503363122216E+00
    0.66813957125416567617E+00
    0.68282425163105031629E+00
    0.67856286470609816774E+00
    0.69150605581009561007E+00
    0.70730106660973246502E+00
    0.63955529912415420846E+00
    0.66021771825894437491E+00
    0.69132776721994793068E+00
    0.67664764667391241737E+00
    0.69545413710373638061E+00
    0.68938009449050574595E+00
    0.66274113479085849931E+00
    0.67579374905435618537E+00
    0.65483996848473691177E+00
    0.65877726962241422992E+00
    0.67415967920328778717E+00
    0.66752572996664460980E+00
    0.67362809100759701852E+00
    0.67561714352998503141E+00
    0.67778668297549304889E+00
    0.67771657427812403984E+00
    0.67881455079452246437E+00
    0.67295077306916439852E+00
    0.65907780383113323541E+00
    0.66334829667120376318E+00
    0.65117477182813210401E+00
    0.64003577855440307864E+00
    0.61240142227119287455E+00
    0.62043166557391216109E+00
    0.69896541516353927204E+00
    0.70104511226705623628E+00
    0.70012266112613441571E+00
    0.70044828771400169387E+00
    0.69069019717698321159E+00
    0.69227167762505104065E+00
    0.69570033002782960541E+00
    0.69669692530664117935E+00
    0.69349599735553524305E+00
    0.69037367680189265506E+00
    0.67364277018039786515E+00
    0.68258749585744360466E+00
    0.66508111916631595939E+00
    0.65181891409048930974E+00
    0.61105854161579742367E+00
    0.63046062841379124642E+00
    0.60864370189086225427E+00
    0.64169752703293347906E+00
    0.66263108851216878659E+00
    0.61952613079068563628E+00
    0.66086667292400091966E+00
    0.65429251884754502377E+00
    0.67941385366078510533E+00
    0.67752082044001638028E+00
    0.67336570304556908617E+00
    0.66275396979334133540E+00
    0.71830959605225030984E+00
    0.71780217079626718046E+00
    0.65571991411228380819E+00
    0.69348068001066121013E+00
    0.73801326922591736768E+00
    0.65522775503204200298E+00
    0.62077927496468665591E+00
    0.58306009620971865903E+00
    0.42716321680298469099E+00
    0.62656519572557733966E+00
    0.60810333775192204619E+00
    0.63620125635005397857E+00
    0.53239361436935728200E+00
    0.70242474093278051139E+00
    0.67877382927938523238E+00
    0.67775401572265203676E+00
    0.70101999514517965295E+00
    0.66683417136062217434E+00
    0.74172650697028452704E+00
    0.68613410180884804035E+00
    0.65518080283425828014E+00
    0.67587857493723302316E+00
    0.66308955685931192381E+00
    0.67625909871443645738E+00
    0.67733829151136515367E+00
    0.60976987475488075852E+00
    0.60451322037331789438E+00
    0.61105100157409908412E+00
    0.61883112674656182151E+00
    0.59717316844477030813E+00
    0.74205607330342726602E+00
    0.68622782701190931931E+00
    0.71210565661584168673E+00
    0.68469671696914491399E+00
    0.66538827019976742871E+00
    0.66001753887307723634E+00
    0.68245343601063557237E+00
    0.67912252157962138543E+00
    0.73555242692062550169E+00
    0.71707151005128966226E+00
    0.73611861849815429792E+00
    0.63646117350930486722E+00
    0.75827360218449368912E+00
    0.69371093758829194265E+00
    0.69683002795101267601E+00
    0.68784951050778586623E+00
    0.70374722399257438887E+00
    0.70281080457338251932E+00
    0.68365491449437754135E+00
    0.69199636079572424130E+00
    0.66964884648184397342E+00
    0.73153953032910501442E+00
    0.66421732546018485976E+00
    0.73264321841148094538E+00
    0.74551846421965062284E+00
    0.63508122068020311790E+00
    0.68834268190971648060E+00
    0.67253897583207844502E+00
    0.65664980367833725161E+00
    0.68108114951252951563E+00
    0.65864388114399019525E+00
    0.63993931469961751191E+00
    0.66783818317114773677E+00
    0.67319530187165266266E+00
    0.67953924333965221027E+00
    0.67442825691998842252E+00
    0.65631711664570768772E+00
    0.69366569969953584263E+00
    0.69132117630134770625E+00
    0.65992179477847889846E+00
    0.66345827041096638865E+00
    0.63837793057245606487E+00
    0.59573788267247396178E+00
    0.62781894277267435989E+00
    0.62238620598105054427E+00
    0.62011971361584716789E+00
    0.62301429106605521469E+00
    0.67359648051108222955E+00
    0.65933997169872460287E+00
    0.65034473441622919765E+00
    0.67414531991384030185E+00
    0.67494391523228947083E+00
    0.72608779296077141652E+00
    0.66642152725594006046E+00
    0.67129511946960596092E+00
    0.67269184084066457885E+00
    0.73357405033585010301E+00
    0.70503242864512039034E+00
    0.71071259760610350220E+00
    0.70912559252758144979E+00
    0.70199610435337234104E+00
    0.70240237331831256729E+00
    0.67233541484407988165E+00
    0.64577609112935074887E+00
    0.67458688896957186287E+00
    0.66308829368224087020E+00
    0.64150005105262475347E+00
    0.69333975517125034926E+00
    0.73450073547002781016E+00
    0.72595086669353947606E+00
    0.67194705345405303376E+00
    0.71770189341019774432E+00
    0.63710926027543324235E+00
    0.66581814843147124616E+00
    0.64868120333680412415E+00
    0.67050164098780606903E+00
    0.67354595830864782968E+00
    0.67445684352425760988E+00
    0.72243978722265800307E+00
    0.69006267704866308677E+00
    0.71557050704367575200E+00
    0.72691609084156394438E+00
    0.59234670646673615035E+00
    0.62015860577675929743E+00
    0.58245883057893743651E+00
    0.61520204791937826982E+00
    0.57485609621620326060E+00
    0.70557733016034318574E+00
    0.67462798378880084460E+00
    0.69966195441535183885E+00
    0.71103005047474476807E+00
    0.68167357170460418647E+00
    0.68763963942796879625E+00
    0.69400214782012625836E+00
    0.69855743506792489228E+00
    0.68964565069392702590E+00
    0.69367040088766540595E+00
    0.51146892399062748868E+00
    0.62914147083176796826E+00
    0.59035075016108617962E+00
    0.61168233932813453890E+00
    0.62400673225684388790E+00
    0.72805098473837281947E+00
    0.72733178990771463202E+00
    0.68513379690710762837E+00
    0.68499538997413644825E+00
    0.67176298822704672009E+00
    0.65712030429956502786E+00
    0.67160380353338422488E+00
    0.66752935727042916891E+00
    0.66058826608389697999E+00
    0.46301219528625764399E+00
    0.37274752371670416551E+00
    0.34998780545385776986E+00
    0.72111629109790809089E+00
    0.62625147862445162961E+00
    0.76155063695650193623E+00
    0.68663855826176045660E+00
    0.69401892225060257680E+00
    0.70273807240273922226E+00
    0.70320703123381600452E+00
    0.70588482954670173086E+00
    0.68554233098633476917E+00
    0.65799232772918692103E+00
    0.71115820494966719423E+00
    0.71374407345048784812E+00
    0.70866660714443707736E+00
    0.72540354087795266835E+00
    0.67922560856489944126E+00
    0.62712403420636742002E+00
    0.65125842547404022564E+00
    0.60914479951760847065E+00
    0.61675215511644543298E+00
    0.74104020491837063744E+00
    0.65423587865465848701E+00
    0.67144591629705174807E+00
    0.62715746252263138150E+00
    0.65998721523780901066E+00
    0.70310813218444467854E+00
    0.69498961812995263543E+00
    0.68208494029310240414E+00
    0.74010303205260874471E+00
    0.66486086918144171598E+00
    0.64228135691768184490E+00
    0.70125143558714952974E+00
    0.67683136743259320056E+00
    0.70723810701576794724E+00
    0.66913871680571690437E+00
    0.67232327089103050000E+00
    0.67875819658860281347E+00
    0.67922026696379278476E+00
    0.69261058938090547255E+00
    0.69505503947595692615E+00
    0.62643360548990656422E+00
    0.64730386292910202517E+00
    0.66564046953967492826E+00
    0.69752147487708882068E+00
    0.69662527148871489224E+00
    0.66774390564424901395E+00
    0.69110920769733785729E+00
    0.68050624755367683516E+00
    0.65809134590664597475E+00
    0.66390647925012968855E+00
    0.60136772438925623074E+00
    0.61276600554297266932E+00
    0.62905854252659432202E+00
    0.71648006621926896287E+00
    0.67194617249538479697E+00
    0.68295698087493461603E+00
    0.69499318643823826402E+00
    0.67116172867679102509E+00
    0.73633254937744319069E+00
    0.75298691286199637140E+00
    0.66054091436798845205E+00
    0.61803571271915758167E+00
    0.61683224137634040662E+00
    0.54335091805192881065E+00
    0.66420321001587201426E+00
    0.66638970058966695564E+00
    0.70016756602296537082E+00
    0.67004163502178881728E+00
    0.67477147007113191801E+00
    0.68390926904458970714E+00
    0.70991463415052491470E+00
    0.71555168962871429361E+00
    0.63497345551625561377E+00
    0.64171876342081501932E+00
    0.70461434906051967353E+00
    0.67563527716423976699E+00
    0.68666038093543846355E+00
    0.61639918793573622580E+00
    0.70426148383350928306E+00
    0.69487971413810922794E+00
    0.63122802395048371871E+00
    0.69631246589691342397E+00
    0.62326830114544040651E+00
    0.71583475153483910880E+00
    0.67450497153741739709E+00
    0.73372612929652702984E+00
    0.67333437597856748980E+00
    0.70567287601468497993E+00
    0.71064939170947727387E+00
    0.74499012635775574420E+00
    0.67863977280684906201E+00
    0.64697464317822428459E+00
    0.68291271587996438264E+00
    0.65294212521760863766E+00
    0.67541918241508835941E+00
    0.48911515182166920290E+00
    0.69089161855298464321E+00
    0.69642500175175869881E+00
    0.68502248029388312922E+00
    0.70382731709074863868E+00
    0.65902565909935362232E+00
    0.63700887629557501057E+00
    0.62912722457143899213E+00
    0.58556690360109331372E+00
    0.58117440907979189824E+00
    0.67109367713779988218E+00
    0.69807180895898968132E+00
    0.67060998078095857000E+00
    0.65549679414618444717E+00
    0.65266136272409092101E+00
    0.66358732221859839662E+00
    0.69358378625185435062E+00
    0.68289035496376715439E+00
    0.70044504876272661864E+00
    0.69303179372450096629E+00
    0.67145519064138081688E+00
    0.67914584329851490629E+00
    0.69114702568414032591E+00
    0.67385424672001259516E+00
    0.64799698725525489706E+00
    0.66019230594859434902E+00
    0.66549230947420512372E+00
    0.66397484120959415765E+00
    0.65574369118725805983E+00
    0.64063817405580714137E+00
    0.61728531248103568618E+00
    0.69203089697289676963E+00
    0.69326675179653052261E+00
    0.69308708825986653501E+00
    0.68856074780941567415E+00
    0.67878488637229739133E+00
    0.65835126331521998111E+00
    0.62873326925754025041E+00
