# vtk DataFile Version 3.0
LAPLACIEN  2D
ASCII
DATASET UNSTRUCTURED_GRID
 POINTS         391  float
  0.50371505999999999       0.50367786999999997        0.0000000000000000     
  0.29013556000000001       0.29014535000000002        0.0000000000000000     
  0.70165584999999997       0.71206597999999999        0.0000000000000000     
  0.70304188999999995       0.30176619999999998        0.0000000000000000     
  0.30920671999999999       0.71149227999999998        0.0000000000000000     
  0.79044983999999996       0.49884783999999999        0.0000000000000000     
  0.49102621000000002       0.20968644000000000        0.0000000000000000     
  0.49912957000000002       0.77208717000000004        0.0000000000000000     
  0.21724072999999999       0.48989389000000000        0.0000000000000000     
  0.83255933999999998       0.83046598000000005        0.0000000000000000     
  0.16646774000000000       0.17015694000000001        0.0000000000000000     
  0.83054514999999995       0.16736480000000001        0.0000000000000000     
  0.16953130999999999       0.83265739000000005        0.0000000000000000     
  0.42166445000000002       0.36345201999999999        0.0000000000000000     
  0.64462200999999997       0.56347807999999999        0.0000000000000000     
  0.35324633999999999       0.56311191000000005        0.0000000000000000     
  0.65456411000000003       0.84856860999999995        0.0000000000000000     
  0.35141477999999998       0.15563974000000000        0.0000000000000000     
  0.15290967000000000       0.35206625000000003        0.0000000000000000     
  0.82942241000000005       0.34936866000000000        0.0000000000000000     
  0.84390527000000004       0.64441694999999999        0.0000000000000000     
  0.63699174999999997       0.14284276000000001        0.0000000000000000     
  0.15620682999999999       0.64648446999999998        0.0000000000000000     
  0.36426062999999997       0.85756310999999996        0.0000000000000000     
  0.63489340999999999       0.40519052000000000        0.0000000000000000     
  0.52518872999999999       0.65957078000000002        0.0000000000000000     
  0.32158959999999998       0.42298103999999997        0.0000000000000000     
  0.58861710000000000       0.31711036999999997        0.0000000000000000     
  0.42078418000000001       0.69497151999999995        0.0000000000000000     
  0.48608786999999998       0.89334152000000000        0.0000000000000000     
   9.7084320000000002E-002  0.50000000000000000        0.0000000000000000     
  0.90291568000000000       0.50000000000000000        0.0000000000000000     
  0.51392453000000005       0.10668648999999999        0.0000000000000000     
  0.59792566999999996       0.73122754000000001        0.0000000000000000     
  0.74510058999999995       0.41124730999999998        0.0000000000000000     
  0.73212551999999997       0.90191560000000004        0.0000000000000000     
   9.7784830000000003E-002  0.26957329000000002        0.0000000000000000     
  0.26711221000000002        9.8671499999999995E-002   0.0000000000000000     
  0.90191560000000004       0.26787448000000003        0.0000000000000000     
  0.90118569000000004       0.73039821000000005        0.0000000000000000     
  0.73122947000000005        9.8017859999999998E-002   0.0000000000000000     
   9.8084400000000002E-002  0.73212551999999997        0.0000000000000000     
  0.26957329000000002       0.90221516999999996        0.0000000000000000     
  0.39283522999999998       0.25360379000000000        0.0000000000000000     
  0.74480864000000002       0.60495284999999999        0.0000000000000000     
  0.25505132000000003       0.60593640999999998        0.0000000000000000     
  0.52159297999999998       0.40671636000000000        0.0000000000000000     
  0.40768852000000000       0.47699891000000000        0.0000000000000000     
   9.1467049999999994E-002   9.1876959999999994E-002   0.0000000000000000     
  0.90842484999999995       0.90819225000000003        0.0000000000000000     
  0.90820104999999995        9.1566729999999999E-002   0.0000000000000000     
   9.1807449999999999E-002  0.90843574000000005        0.0000000000000000     
  0.27098960000000000       0.20527094000000001        0.0000000000000000     
  0.73457293999999995       0.79835387000000002        0.0000000000000000     
  0.79817773000000003       0.25713470999999999        0.0000000000000000     
  0.20747797000000001       0.72863946000000002        0.0000000000000000     
  0.20175195000000001       0.27583914999999998        0.0000000000000000     
  0.79603889000000005       0.72159035000000005        0.0000000000000000     
  0.71761666000000002       0.19748431999999999        0.0000000000000000     
  0.28462607000000001       0.80251899999999998        0.0000000000000000     
  0.69134598999999997       0.49261972999999998        0.0000000000000000     
  0.44720578999999999       0.58582935999999997        0.0000000000000000     
  0.24242269999999999       0.37228174000000003        0.0000000000000000     
  0.38265623999999998       0.93072131999999996        0.0000000000000000     
  0.60971754000000000       0.91988369000000003        0.0000000000000000     
   7.9163609999999995E-002  0.60979116000000000        0.0000000000000000     
  0.92010649000000000       0.61081183999999999        0.0000000000000000     
  0.61954008999999999        7.1530830000000004E-002   0.0000000000000000     
  0.91882012999999996       0.38917363999999999        0.0000000000000000     
  0.39086346000000000        8.0652249999999995E-002   0.0000000000000000     
   7.9183480000000001E-002  0.38966213000000000        0.0000000000000000     
  0.59114111999999996       0.49294315000000000        0.0000000000000000     
  0.63337980999999999       0.64485914000000000        0.0000000000000000     
  0.50012352000000004       0.29676539000000002        0.0000000000000000     
  0.82552601000000003       0.92753492000000004        0.0000000000000000     
  0.92774772999999999       0.82498556999999995        0.0000000000000000     
   7.1970870000000006E-002  0.17510291000000000        0.0000000000000000     
  0.17422821999999999        7.2635640000000001E-002   0.0000000000000000     
  0.82510813000000005        7.2134840000000006E-002   0.0000000000000000     
  0.92754665000000003       0.17446275999999999        0.0000000000000000     
  0.17501022999999999       0.92789951999999998        0.0000000000000000     
   7.2464680000000004E-002  0.82554053000000005        0.0000000000000000     
  0.30731587999999999       0.50885354999999999        0.0000000000000000     
  0.59033407999999998       0.22171178999999999        0.0000000000000000     
  0.40109191999999999       0.78725542000000004        0.0000000000000000     
  0.35420917000000002       0.63754104000000000        0.0000000000000000     
  0.15983976999999999       0.56665573000000002        0.0000000000000000     
  0.84108459999999996       0.56757886999999996        0.0000000000000000     
  0.83902096000000004       0.43344338999999998        0.0000000000000000     
  0.43230028999999998       0.16004268999999999        0.0000000000000000     
  0.57536027999999995       0.83041363999999995        0.0000000000000000     
  0.15771898000000001       0.42747892999999998        0.0000000000000000     
  0.34021692999999997       0.34221559000000001        0.0000000000000000     
  0.56002271999999997       0.57501117999999996        0.0000000000000000     
  0.65344329000000001       0.78147597999999996        0.0000000000000000     
   0.0000000000000000        0.0000000000000000        0.0000000000000000     
   1.0000000000000000        0.0000000000000000        0.0000000000000000     
   1.0000000000000000        1.0000000000000000        0.0000000000000000     
   0.0000000000000000        1.0000000000000000        0.0000000000000000     
  0.11111111000000000        0.0000000000000000        0.0000000000000000     
  0.22222222000000000        0.0000000000000000        0.0000000000000000     
  0.33333332999999998        0.0000000000000000        0.0000000000000000     
  0.44444444000000000        0.0000000000000000        0.0000000000000000     
  0.55555555999999995        0.0000000000000000        0.0000000000000000     
  0.66666667000000002        0.0000000000000000        0.0000000000000000     
  0.77777777999999997        0.0000000000000000        0.0000000000000000     
  0.88888889000000004        0.0000000000000000        0.0000000000000000     
   1.0000000000000000       0.11111111000000000        0.0000000000000000     
   1.0000000000000000       0.22222222000000000        0.0000000000000000     
   1.0000000000000000       0.33333332999999998        0.0000000000000000     
   1.0000000000000000       0.44444444000000000        0.0000000000000000     
   1.0000000000000000       0.55555555999999995        0.0000000000000000     
   1.0000000000000000       0.66666667000000002        0.0000000000000000     
   1.0000000000000000       0.77777777999999997        0.0000000000000000     
   1.0000000000000000       0.88888889000000004        0.0000000000000000     
  0.88888889000000004        1.0000000000000000        0.0000000000000000     
  0.77777777999999997        1.0000000000000000        0.0000000000000000     
  0.66666667000000002        1.0000000000000000        0.0000000000000000     
  0.55555555999999995        1.0000000000000000        0.0000000000000000     
  0.44444444000000000        1.0000000000000000        0.0000000000000000     
  0.33333332999999998        1.0000000000000000        0.0000000000000000     
  0.22222222000000000        1.0000000000000000        0.0000000000000000     
  0.11111111000000000        1.0000000000000000        0.0000000000000000     
   0.0000000000000000       0.11111111000000000        0.0000000000000000     
   0.0000000000000000       0.22222222000000000        0.0000000000000000     
[...]
 CELL_DATA         354
 SCALARS E float
 LOOKUP_TABLE default
    0.71028204790477744712E+00
    0.70623266282957952722E+00
    0.65173429942279814675E+00
    0.59662698838876870866E+00
    0.74140483021406511366E+00
    0.73416027902007319206E+00
    0.69981376529896333061E+00
    0.72175587760759474243E+00
    0.69475578514649105610E+00
    0.68147353250103503974E+00
    0.62648007201703670432E+00
    0.65079035532744544668E+00
    0.62497173833168839785E+00
    0.62188085559763472965E+00
    0.63919366845718084136E+00
    0.63065320826891557715E+00
    0.64978892088010553607E+00
    0.68218598126158491723E+00
    0.72559751369038794078E+00
    0.70582943180930679539E+00
    0.71424144114697829533E+00
    0.70929226986447380110E+00
    0.68479555281801518518E+00
    0.69699863599165312600E+00
    0.67471814670193308583E+00
    0.68321350734420382977E+00
    0.70402577872482208221E+00
    0.69732799253325805644E+00
    0.70490089226257779398E+00
    0.71650417906831020964E+00
    0.72315739562592784573E+00
    0.72485363682095482751E+00
    0.71135177450968112289E+00
    0.70872233143009588652E+00
    0.69164481811405886802E+00
    0.70166813326960586483E+00
    0.66860566216390271421E+00
    0.67632061041907010068E+00
    0.68502891830167655929E+00
    0.68012842689039731958E+00
    0.68685540070095152387E+00
    0.69077169352255896051E+00
    0.68878957044570365831E+00
    0.69145798098524036135E+00
    0.68712798352480186637E+00
    0.68195312919562933729E+00
    0.67040487371601442668E+00
    0.67582781900579802503E+00
    0.65940341803670288190E+00
    0.64782973005583388559E+00
    0.62444497693416645134E+00
    0.63703824391567454022E+00
    0.71763105797260551277E+00
    0.72127115429673605007E+00
    0.71445660368385199845E+00
    0.71708556055627059589E+00
    0.71030356730977450841E+00
    0.71375815420617527707E+00
    0.71646225311570710392E+00
    0.71772354455863884848E+00
    0.71042581665579540573E+00
    0.70891926981087616255E+00
    0.69151107830502978047E+00
    0.70351345981481316905E+00
    0.67573679767646099847E+00
    0.66346294163158558987E+00
    0.63414304672414667507E+00
    0.64924973544916753099E+00
    0.62564274188884128058E+00
    0.66938415551705809925E+00
    0.71053223927287034734E+00
    0.64340219931187758728E+00
    0.69714201502349770756E+00
    0.65310271061533908821E+00
    0.69410574693592930196E+00
    0.72790647037848432710E+00
    0.72829293944756434698E+00
    0.69134104911741167676E+00
    0.72942846832289987002E+00
    0.71937962272267197417E+00
    0.74592850340076211069E+00
    0.73616138029375310925E+00
    0.73427906781469576281E+00
    0.72640000965260753674E+00
    0.65104881176954942923E+00
    0.67859400138477909969E+00
    0.76722435303471003820E+00
    0.64457895940338993945E+00
    0.64780337211666694230E+00
    0.64238455385555126576E+00
    0.70380610921605524233E+00
    0.76287991837215940460E+00
    0.75697831339169907583E+00
    0.75075647017663782457E+00
    0.74675191725760858841E+00
    0.75233888133864368353E+00
    0.76396646640965026887E+00
    0.72487684077745129230E+00
    0.66809639679648658017E+00
    0.70671472143223534879E+00
    0.69510491451269462715E+00
    0.69770768265243665596E+00
    0.70528421944689001499E+00
    0.65934548701312123420E+00
    0.66226223126361316584E+00
    0.65406470469692878922E+00
    0.64674901838383502817E+00
    0.63611013937561899922E+00
    0.74214087508518267189E+00
    0.74006849180630285279E+00
    0.76096879540172412959E+00
    0.74132593554479775388E+00
    0.75481286939527736379E+00
    0.74598336541360632523E+00
    0.73850328572587575771E+00
    0.74883010960182372351E+00
    0.74535817502229051446E+00
    0.72468732839297156367E+00
    0.74490174536040110187E+00
    0.72826910255332433231E+00
    0.73096411442061115515E+00
    0.73419161576800751057E+00
    0.73989864839181751499E+00
    0.71853154032406263418E+00
    0.75562817190301068138E+00
    0.75395525864209755884E+00
    0.71111384851040093658E+00
    0.72282415643311825892E+00
    0.73785616638099282838E+00
    0.73061159009763443350E+00
    0.73856101564972176377E+00
    0.74475790274244446643E+00
    0.74808263912101802262E+00
    0.72894664204892678505E+00
    0.72739594437621957201E+00
    0.70402462015606293022E+00
    0.68077021233092938068E+00
    0.70661461795094648863E+00
    0.70087042288368972542E+00
    0.68625668044444232407E+00
    0.68086244778538218547E+00
    0.68763892489721745171E+00
    0.71381877438598229091E+00
    0.70650622649745198345E+00
    0.68144574817734648864E+00
    0.73926013061420747796E+00
    0.73522499230255500269E+00
    0.68187637406176671018E+00
    0.68674789342441655560E+00
    0.66171976058992876268E+00
    0.64138487262751842088E+00
    0.66119502113619843531E+00
    0.66436622130448186319E+00
    0.65664537026571812017E+00
    0.64315613401266524818E+00
    0.73381705056089796546E+00
    0.68285680837424067580E+00
    0.65688358861160733859E+00
    0.72777728161200805346E+00
    0.70006950719869143196E+00
    0.76003877393506913407E+00
    0.67471276835456672760E+00
    0.70089526121174061668E+00
    0.72156504815460309477E+00
    0.73519518150041673898E+00
    0.75773680881679961185E+00
    0.75631588946592809286E+00
    0.76039550787057219594E+00
    0.74446022295963409920E+00
    0.74858758062077612738E+00
    0.74024980502120918402E+00
    0.67076491019142947536E+00
    0.70671867605158000814E+00
    0.72423939491156852366E+00
    0.67201024927033781164E+00
    0.76293383511167989219E+00
    0.73448590147139136697E+00
    0.71911190121399359843E+00
    0.76634688221263558283E+00
    0.74014041312901490688E+00
    0.64921176009404379936E+00
    0.71571367276815744951E+00
    0.67353231254973500164E+00
    0.72306186239335912269E+00
    0.68031654002151176197E+00
    0.76687211724681136893E+00
    0.72288658043484887994E+00
    0.74344703429750924606E+00
    0.76319305614625676526E+00
    0.72993925407450555021E+00
    0.64201416751603423982E+00
    0.68224778243412553813E+00
    0.62900847718550645382E+00
    0.64607170350446985196E+00
    0.64437584399958880432E+00
    0.75341621524515423047E+00
    0.73552612053296306804E+00
    0.73983307507308193607E+00
    0.75891957743952964677E+00
    0.74291652020245768639E+00
    0.72333463897060812364E+00
    0.73675596905191376162E+00
    0.73093276208730650900E+00
    0.72251039620715207246E+00
    0.73497319027871299557E+00
    0.72297057083297344704E+00
    0.63178403225215107319E+00
    0.65890626007746111448E+00
    0.64622637508437841269E+00
    0.63996208218053329819E+00
    0.73737040880674709076E+00
    0.73033356153497708263E+00
    0.71612917403040654563E+00
    0.72775091762077059876E+00
    0.71632324766793198378E+00
    0.67248127213572295169E+00
    0.73145858964626864207E+00
    0.70757652970600348752E+00
    0.69405868558275796154E+00
    0.73323319202709980047E+00
    0.77322771080028074309E+00
    0.79189285079235915976E+00
    0.72134671811871653446E+00
    0.74654958584185227011E+00
    0.73974963236897450791E+00
    0.70829497008553132797E+00
    0.74050822069232014044E+00
    0.75727045498983180938E+00
    0.75571427257007062206E+00
    0.74915009792454712034E+00
    0.75975628126324279421E+00
    0.74861199437515524302E+00
    0.76697041713483637970E+00
    0.74507501646161844455E+00
    0.74158965178140467955E+00
    0.73130014977396851084E+00
    0.74578986785310585894E+00
    0.62711113219352554449E+00
    0.69119733728788090854E+00
    0.68832275734710901549E+00
    0.67772986971506976595E+00
    0.73387608705117723940E+00
    0.74590128284100354339E+00
    0.73348955603659304892E+00
    0.65546337361453033132E+00
    0.65162330978346405530E+00
    0.75211335647695842788E+00
    0.74500937452331128519E+00
    0.71032544586717416557E+00
    0.74982703539858674979E+00
    0.75863304575982681843E+00
    0.73406221881754563086E+00
    0.73573194165745092743E+00
    0.74328518884581129544E+00
    0.71779282645810271735E+00
    0.71527570747645685678E+00
    0.72078592059617530019E+00
    0.69892066457787849210E+00
    0.75835754092486440392E+00
    0.76632763710726414796E+00
    0.72173818148836088593E+00
    0.68140224052815634437E+00
    0.69824804821597830085E+00
    0.67109722719812459069E+00
    0.74231437527147214883E+00
    0.74578521340554737584E+00
    0.68999589995848675805E+00
    0.73215055983166632547E+00
    0.72268297729055486212E+00
    0.68078023499194073587E+00
    0.66863215644313978014E+00
    0.67817913520366457369E+00
    0.64902614233905020491E+00
    0.63809037181142014283E+00
    0.72383954739422884384E+00
    0.71986027779638561697E+00
    0.73016347123214286885E+00
    0.70757147247073537422E+00
    0.73937154318734310543E+00
    0.76496388649975133323E+00
    0.75896071747728843793E+00
    0.73221191186933398676E+00
    0.65925512040485401144E+00
    0.62175161360109343356E+00
    0.69301307885919327667E+00
    0.69104069677865598287E+00
    0.67804278203475232267E+00
    0.74468790503527104718E+00
    0.74575268379543557806E+00
    0.70753371895502614741E+00
    0.71813216193074169702E+00
    0.72368567714257603374E+00
    0.72651006726858102791E+00
    0.66781649374508411654E+00
    0.67259219988257423761E+00
    0.73576798030676282547E+00
    0.75206222743483630566E+00
    0.75400195729642527365E+00
    0.66065841532402735936E+00
    0.74817637108385648403E+00
    0.72546363249234935289E+00
    0.62149352432945481617E+00
    0.73376720419103602655E+00
    0.65083577780157919612E+00
    0.71269218402195266826E+00
    0.71308870331199880610E+00
    0.70737736451198918175E+00
    0.71644506424083709284E+00
    0.75460033159689143822E+00
    0.75420983003236408138E+00
    0.74775820371983914292E+00
    0.73044461390402681822E+00
    0.70084007011070115212E+00
    0.76278549787037808194E+00
    0.67349461757605821877E+00
    0.72631725260135349131E+00
    0.70302545663737825432E+00
    0.74795012726472354103E+00
    0.72226725647416090137E+00
    0.69377823849239772525E+00
    0.71874367270255135054E+00
    0.70346727267753073054E+00
    0.65511696423125520550E+00
    0.62924261532088721083E+00
    0.57874133023460316849E+00
    0.58902424563100863608E+00
    0.72442705180922106756E+00
    0.68864615741075585476E+00
    0.65609744014427140435E+00
    0.62442938788777924142E+00
    0.61331618399895337923E+00
    0.63497250924613490852E+00
    0.68951545577281125876E+00
    0.69190717747791019576E+00
    0.67418042540650469086E+00
    0.67932300191478489637E+00
    0.69407775014306727357E+00
    0.70658962581245388090E+00
    0.70415302672747626112E+00
    0.69344828067843866659E+00
    0.65207224592856427581E+00
    0.66000163166052183694E+00
    0.66512718218433852790E+00
    0.66271487688538655014E+00
    0.65530178650797887840E+00
    0.63836569830239975332E+00
    0.61662582537192889287E+00
    0.70042672560289553907E+00
    0.69649576850352123980E+00
    0.69650996965163936014E+00
    0.69444384459025831902E+00
    0.68519630706645884288E+00
    0.66259090724046576515E+00
    0.63588527330089261724E+00
