# vtk DataFile Version 3.0
LAPLACIEN  2D
ASCII
DATASET UNSTRUCTURED_GRID
 POINTS         391  float
  0.50371505999999999       0.50367786999999997        0.0000000000000000     
  0.29013556000000001       0.29014535000000002        0.0000000000000000     
  0.70165584999999997       0.71206597999999999        0.0000000000000000     
  0.70304188999999995       0.30176619999999998        0.0000000000000000     
  0.30920671999999999       0.71149227999999998        0.0000000000000000     
  0.79044983999999996       0.49884783999999999        0.0000000000000000     
  0.49102621000000002       0.20968644000000000        0.0000000000000000     
  0.49912957000000002       0.77208717000000004        0.0000000000000000     
  0.21724072999999999       0.48989389000000000        0.0000000000000000     
  0.83255933999999998       0.83046598000000005        0.0000000000000000     
  0.16646774000000000       0.17015694000000001        0.0000000000000000     
  0.83054514999999995       0.16736480000000001        0.0000000000000000     
  0.16953130999999999       0.83265739000000005        0.0000000000000000     
  0.42166445000000002       0.36345201999999999        0.0000000000000000     
  0.64462200999999997       0.56347807999999999        0.0000000000000000     
  0.35324633999999999       0.56311191000000005        0.0000000000000000     
  0.65456411000000003       0.84856860999999995        0.0000000000000000     
  0.35141477999999998       0.15563974000000000        0.0000000000000000     
  0.15290967000000000       0.35206625000000003        0.0000000000000000     
  0.82942241000000005       0.34936866000000000        0.0000000000000000     
  0.84390527000000004       0.64441694999999999        0.0000000000000000     
  0.63699174999999997       0.14284276000000001        0.0000000000000000     
  0.15620682999999999       0.64648446999999998        0.0000000000000000     
  0.36426062999999997       0.85756310999999996        0.0000000000000000     
  0.63489340999999999       0.40519052000000000        0.0000000000000000     
  0.52518872999999999       0.65957078000000002        0.0000000000000000     
  0.32158959999999998       0.42298103999999997        0.0000000000000000     
  0.58861710000000000       0.31711036999999997        0.0000000000000000     
  0.42078418000000001       0.69497151999999995        0.0000000000000000     
  0.48608786999999998       0.89334152000000000        0.0000000000000000     
   9.7084320000000002E-002  0.50000000000000000        0.0000000000000000     
  0.90291568000000000       0.50000000000000000        0.0000000000000000     
  0.51392453000000005       0.10668648999999999        0.0000000000000000     
  0.59792566999999996       0.73122754000000001        0.0000000000000000     
  0.74510058999999995       0.41124730999999998        0.0000000000000000     
  0.73212551999999997       0.90191560000000004        0.0000000000000000     
   9.7784830000000003E-002  0.26957329000000002        0.0000000000000000     
  0.26711221000000002        9.8671499999999995E-002   0.0000000000000000     
  0.90191560000000004       0.26787448000000003        0.0000000000000000     
  0.90118569000000004       0.73039821000000005        0.0000000000000000     
  0.73122947000000005        9.8017859999999998E-002   0.0000000000000000     
   9.8084400000000002E-002  0.73212551999999997        0.0000000000000000     
  0.26957329000000002       0.90221516999999996        0.0000000000000000     
  0.39283522999999998       0.25360379000000000        0.0000000000000000     
  0.74480864000000002       0.60495284999999999        0.0000000000000000     
  0.25505132000000003       0.60593640999999998        0.0000000000000000     
  0.52159297999999998       0.40671636000000000        0.0000000000000000     
  0.40768852000000000       0.47699891000000000        0.0000000000000000     
   9.1467049999999994E-002   9.1876959999999994E-002   0.0000000000000000     
  0.90842484999999995       0.90819225000000003        0.0000000000000000     
  0.90820104999999995        9.1566729999999999E-002   0.0000000000000000     
   9.1807449999999999E-002  0.90843574000000005        0.0000000000000000     
  0.27098960000000000       0.20527094000000001        0.0000000000000000     
  0.73457293999999995       0.79835387000000002        0.0000000000000000     
  0.79817773000000003       0.25713470999999999        0.0000000000000000     
  0.20747797000000001       0.72863946000000002        0.0000000000000000     
  0.20175195000000001       0.27583914999999998        0.0000000000000000     
  0.79603889000000005       0.72159035000000005        0.0000000000000000     
  0.71761666000000002       0.19748431999999999        0.0000000000000000     
  0.28462607000000001       0.80251899999999998        0.0000000000000000     
  0.69134598999999997       0.49261972999999998        0.0000000000000000     
  0.44720578999999999       0.58582935999999997        0.0000000000000000     
  0.24242269999999999       0.37228174000000003        0.0000000000000000     
  0.38265623999999998       0.93072131999999996        0.0000000000000000     
  0.60971754000000000       0.91988369000000003        0.0000000000000000     
   7.9163609999999995E-002  0.60979116000000000        0.0000000000000000     
  0.92010649000000000       0.61081183999999999        0.0000000000000000     
  0.61954008999999999        7.1530830000000004E-002   0.0000000000000000     
  0.91882012999999996       0.38917363999999999        0.0000000000000000     
  0.39086346000000000        8.0652249999999995E-002   0.0000000000000000     
   7.9183480000000001E-002  0.38966213000000000        0.0000000000000000     
  0.59114111999999996       0.49294315000000000        0.0000000000000000     
  0.63337980999999999       0.64485914000000000        0.0000000000000000     
  0.50012352000000004       0.29676539000000002        0.0000000000000000     
  0.82552601000000003       0.92753492000000004        0.0000000000000000     
  0.92774772999999999       0.82498556999999995        0.0000000000000000     
   7.1970870000000006E-002  0.17510291000000000        0.0000000000000000     
  0.17422821999999999        7.2635640000000001E-002   0.0000000000000000     
  0.82510813000000005        7.2134840000000006E-002   0.0000000000000000     
  0.92754665000000003       0.17446275999999999        0.0000000000000000     
  0.17501022999999999       0.92789951999999998        0.0000000000000000     
   7.2464680000000004E-002  0.82554053000000005        0.0000000000000000     
  0.30731587999999999       0.50885354999999999        0.0000000000000000     
  0.59033407999999998       0.22171178999999999        0.0000000000000000     
  0.40109191999999999       0.78725542000000004        0.0000000000000000     
  0.35420917000000002       0.63754104000000000        0.0000000000000000     
  0.15983976999999999       0.56665573000000002        0.0000000000000000     
  0.84108459999999996       0.56757886999999996        0.0000000000000000     
  0.83902096000000004       0.43344338999999998        0.0000000000000000     
  0.43230028999999998       0.16004268999999999        0.0000000000000000     
  0.57536027999999995       0.83041363999999995        0.0000000000000000     
  0.15771898000000001       0.42747892999999998        0.0000000000000000     
  0.34021692999999997       0.34221559000000001        0.0000000000000000     
  0.56002271999999997       0.57501117999999996        0.0000000000000000     
  0.65344329000000001       0.78147597999999996        0.0000000000000000     
   0.0000000000000000        0.0000000000000000        0.0000000000000000     
   1.0000000000000000        0.0000000000000000        0.0000000000000000     
   1.0000000000000000        1.0000000000000000        0.0000000000000000     
   0.0000000000000000        1.0000000000000000        0.0000000000000000     
  0.11111111000000000        0.0000000000000000        0.0000000000000000     
  0.22222222000000000        0.0000000000000000        0.0000000000000000     
  0.33333332999999998        0.0000000000000000        0.0000000000000000     
  0.44444444000000000        0.0000000000000000        0.0000000000000000     
  0.55555555999999995        0.0000000000000000        0.0000000000000000     
  0.66666667000000002        0.0000000000000000        0.0000000000000000     
  0.77777777999999997        0.0000000000000000        0.0000000000000000     
  0.88888889000000004        0.0000000000000000        0.0000000000000000     
   1.0000000000000000       0.11111111000000000        0.0000000000000000     
   1.0000000000000000       0.22222222000000000        0.0000000000000000     
   1.0000000000000000       0.33333332999999998        0.0000000000000000     
   1.0000000000000000       0.44444444000000000        0.0000000000000000     
   1.0000000000000000       0.55555555999999995        0.0000000000000000     
   1.0000000000000000       0.66666667000000002        0.0000000000000000     
   1.0000000000000000       0.77777777999999997        0.0000000000000000     
   1.0000000000000000       0.88888889000000004        0.0000000000000000     
  0.88888889000000004        1.0000000000000000        0.0000000000000000     
  0.77777777999999997        1.0000000000000000        0.0000000000000000     
  0.66666667000000002        1.0000000000000000        0.0000000000000000     
  0.55555555999999995        1.0000000000000000        0.0000000000000000     
  0.44444444000000000        1.0000000000000000        0.0000000000000000     
  0.33333332999999998        1.0000000000000000        0.0000000000000000     
  0.22222222000000000        1.0000000000000000        0.0000000000000000     
  0.11111111000000000        1.0000000000000000        0.0000000000000000     
   0.0000000000000000       0.11111111000000000        0.0000000000000000     
   0.0000000000000000       0.22222222000000000        0.0000000000000000     
[...]
 CELL_DATA         354
 SCALARS E float
 LOOKUP_TABLE default
    0.69105138468092952575E+00
    0.63770137334310328381E+00
    0.64084594328941524299E+00
    0.59596969998798110524E+00
    0.69996096104023897144E+00
    0.66279267618348303159E+00
    0.69383346038001936229E+00
    0.66244348120812512892E+00
    0.68995729995454946337E+00
    0.67553701742528382557E+00
    0.65121152576744945062E+00
    0.66554698402716705452E+00
    0.64027748152921493130E+00
    0.64640172039026433382E+00
    0.65478094463073355236E+00
    0.65118800178293256842E+00
    0.66437952844890202364E+00
    0.67002813612253986353E+00
    0.72165259938315584609E+00
    0.71474672024687913030E+00
    0.67601620927478567324E+00
    0.69124529026031666934E+00
    0.68513215587560538644E+00
    0.66466327093105059820E+00
    0.68055515490011164736E+00
    0.67644876275933019105E+00
    0.68865218941374606310E+00
    0.70569934510651799453E+00
    0.63576082500390573848E+00
    0.65461718152683745497E+00
    0.68691180590922995552E+00
    0.66936070511628364965E+00
    0.69223445201711986119E+00
    0.68651713253812962634E+00
    0.66020211263217531972E+00
    0.67311503873211298021E+00
    0.65254940300317187951E+00
    0.65627386636824058819E+00
    0.67144142379015891997E+00
    0.66497885638468479108E+00
    0.67055973481705011263E+00
    0.67261609334260774595E+00
    0.67470888365097536621E+00
    0.67474431191204353730E+00
    0.67599732542025181559E+00
    0.67030781423923135875E+00
    0.65639666423209519497E+00
    0.66059055726957272014E+00
    0.64873483571722179164E+00
    0.63803811880417793390E+00
    0.61060432129472741458E+00
    0.61817457159716360238E+00
    0.69578687888330881250E+00
    0.69788165364295084991E+00
    0.69645265715502147064E+00
    0.69695553171655211244E+00
    0.68570675279541748459E+00
    0.68744872164380632640E+00
    0.69206783421165796177E+00
    0.69299654416762357378E+00
    0.69012236663341908205E+00
    0.68716262008461448385E+00
    0.67059134533935038647E+00
    0.67947258495279494461E+00
    0.66247091108834921247E+00
    0.64962244948481973061E+00
    0.60863337964581576411E+00
    0.62821383811876618797E+00
    0.60674659263135244380E+00
    0.64021550397822268863E+00
    0.66096549015275596339E+00
    0.61668007932042134822E+00
    0.65985368859649973228E+00
    0.65269226843863259457E+00
    0.67748921601656819647E+00
    0.67426584209495299405E+00
    0.67015919527581879755E+00
    0.66069745378388378132E+00
    0.72086040842627063796E+00
    0.71782962923768778296E+00
    0.64789595256003740253E+00
    0.69192100334106654280E+00
    0.73788152590761557637E+00
    0.65092702594126328197E+00
    0.61931786764763674391E+00
    0.58431400761949436884E+00
    0.42379651502205617497E+00
    0.62698324218799927898E+00
    0.60633987231035779697E+00
    0.63582825656996311281E+00
    0.53248323547202880412E+00
    0.69965500170496985888E+00
    0.67612444396582749295E+00
    0.67076136160840715839E+00
    0.69731891602082951565E+00
    0.65944397584805636292E+00
    0.74718001002195144622E+00
    0.68358250354577454466E+00
    0.65402045296571520439E+00
    0.67309426212776035658E+00
    0.66190014872627878084E+00
    0.67258486464269284788E+00
    0.67591660327711977629E+00
    0.60948649491375039844E+00
    0.60431291863259983810E+00
    0.61257713897525856162E+00
    0.62109546516796609872E+00
    0.59565424725620641500E+00
    0.74445075387507075870E+00
    0.68392520864412309489E+00
    0.70869752298617894049E+00
    0.68221806260153183832E+00
    0.65966906758093002416E+00
    0.65359687801105392779E+00
    0.67982060504427144210E+00
    0.67465405571054892775E+00
    0.73857128975233043988E+00
    0.71634136274886961449E+00
    0.73491296761843738494E+00
    0.63151577294105032401E+00
    0.76150144603290403911E+00
    0.69055413631147166686E+00
    0.69299348082172196328E+00
    0.68515814945259823077E+00
    0.69998849837965271270E+00
    0.69861517150115148844E+00
    0.68053730511077759058E+00
    0.68886927835200983949E+00
    0.66495311425943026684E+00
    0.73198620851528473086E+00
    0.65822950890737330631E+00
    0.73158136802856399417E+00
    0.74698135035456392217E+00
    0.62454277141597280831E+00
    0.68706855354260332192E+00
    0.66985116552156220848E+00
    0.65459954806350661993E+00
    0.67847453025380888292E+00
    0.65714398556297315412E+00
    0.63789200999125983405E+00
    0.66511200594463903979E+00
    0.66938835286117126522E+00
    0.67661317208641380549E+00
    0.67155197143385136904E+00
    0.65401771377170714317E+00
    0.69088494718462167832E+00
    0.68851147994091932425E+00
    0.65731059956622606144E+00
    0.66077474490860921286E+00
    0.63628852705347760388E+00
    0.59339022804292607116E+00
    0.62867952809880278675E+00
    0.62010991335891729737E+00
    0.62150381351145278508E+00
    0.62090820896503817750E+00
    0.67064416913135682652E+00
    0.65809761112095865876E+00
    0.64928260827543349265E+00
    0.67087745287637412517E+00
    0.67402946519957940286E+00
    0.72395085188312013891E+00
    0.66397357037122062273E+00
    0.66830278188858327493E+00
    0.66854198952078314200E+00
    0.73310216292054197762E+00
    0.70236838270107782023E+00
    0.70776636645408252946E+00
    0.70671751966172902115E+00
    0.69857770893876014462E+00
    0.69855290706360906317E+00
    0.66874525601275602860E+00
    0.64405890648248964592E+00
    0.67218195307550621109E+00
    0.66051524289450913585E+00
    0.63895940816858398659E+00
    0.69088440991209920661E+00
    0.73627000873126380309E+00
    0.72603516596810679928E+00
    0.66828648739318408101E+00
    0.71865208905433020092E+00
    0.63504501286810777216E+00
    0.66264101368978178819E+00
    0.64712128479005404103E+00
    0.66714455460693899980E+00
    0.67226288713881787729E+00
    0.66855815135771878843E+00
    0.72328223150126003116E+00
    0.68742360801068747023E+00
    0.71474417090235298211E+00
    0.72789889372614968721E+00
    0.58945758417800053763E+00
    0.61779846927792325673E+00
    0.57917774019538903474E+00
    0.61278940398283721080E+00
    0.57306701566173301465E+00
    0.70312772928726019472E+00
    0.66707386805197232960E+00
    0.69603720670819546612E+00
    0.70853008438426856586E+00
    0.67479374209446041366E+00
    0.68402539551363883419E+00
    0.69151814674397771299E+00
    0.69554775820550751586E+00
    0.68674822307861116411E+00
    0.68999036576888062022E+00
    0.51035792060755369448E+00
    0.63002068529755228532E+00
    0.59270156493830816746E+00
    0.60994165360520147257E+00
    0.62487983289518223007E+00
    0.72815225063901234392E+00
    0.72779022509661750462E+00
    0.68213597637597844781E+00
    0.68128789063605432741E+00
    0.66838596889381485244E+00
    0.65514919279051664347E+00
    0.66887242556907300362E+00
    0.66406361325744089896E+00
    0.65858900300120837290E+00
    0.45943379426684172184E+00
    0.36646454739563827374E+00
    0.34515435993205001441E+00
    0.72000811576319923013E+00
    0.61739186712708826743E+00
    0.76442712333273810099E+00
    0.68364247648412923564E+00
    0.69102260428553474725E+00
    0.69905266173894542447E+00
    0.69979369660077861415E+00
    0.70266867636009078257E+00
    0.67931663049259272125E+00
    0.64921669375456370066E+00
    0.70914680477331915043E+00
    0.71327491388619079782E+00
    0.70595211134937663200E+00
    0.72361284474937759281E+00
    0.67581020312218975654E+00
    0.62498034616325182089E+00
    0.64965196172303063538E+00
    0.60968272730109507318E+00
    0.61433640444581649742E+00
    0.74087196052336634633E+00
    0.64619348265458731451E+00
    0.66866560124754992334E+00
    0.62504779840487134646E+00
    0.65900559541076497716E+00
    0.70020872580110116168E+00
    0.69224565079367805787E+00
    0.67913665630006148088E+00
    0.74338947196177773691E+00
    0.65740692121560662109E+00
    0.63343744389893086311E+00
    0.69865524792572752943E+00
    0.67358364247597590779E+00
    0.70843487254669212927E+00
    0.66749446996423889011E+00
    0.66897082236036309322E+00
    0.67546288862759706895E+00
    0.67354055118780631339E+00
    0.68781809955719852567E+00
    0.69182716600658289430E+00
    0.62416752619399118451E+00
    0.64561642096101756749E+00
    0.66349222108408534293E+00
    0.69476395660053302805E+00
    0.69395399602223872826E+00
    0.66503945560871202680E+00
    0.68838436944176550902E+00
    0.67791531783437353198E+00
    0.65540921993991263506E+00
    0.66281264701965580954E+00
    0.60139059154499907578E+00
    0.61056240586356747002E+00
    0.62701423374979015080E+00
    0.71774244995157698845E+00
    0.67036197485446835653E+00
    0.67915257372881898679E+00
    0.69233014689992677937E+00
    0.66360790387740875573E+00
    0.73454194362907787585E+00
    0.75718454631203246930E+00
    0.65694507918455724571E+00
    0.61704122563713237337E+00
    0.61689087217254157114E+00
    0.54290186176806054519E+00
    0.66223336888388628640E+00
    0.66390044059804498300E+00
    0.69493632807182459388E+00
    0.66507519270243409260E+00
    0.67217035584536133364E+00
    0.68134186993486589579E+00
    0.70802516751377564397E+00
    0.71399445146947082552E+00
    0.63234002686756507483E+00
    0.63928938894817854965E+00
    0.70214729402352271670E+00
    0.67048792157295589167E+00
    0.67963903040786588505E+00
    0.61384008680644219780E+00
    0.70134577366807260290E+00
    0.69240191471201950613E+00
    0.63178809736534113917E+00
    0.69240738773972076991E+00
    0.62092529821209030416E+00
    0.71491954781183297829E+00
    0.67252849438588990783E+00
    0.73399949940673470117E+00
    0.67103829058146491349E+00
    0.70295921422036389270E+00
    0.70758447271535929168E+00
    0.74588650075107598703E+00
    0.67541557813406138955E+00
    0.64473794093524605664E+00
    0.67882111143183443414E+00
    0.65203096871673027479E+00
    0.67254493399853898516E+00
    0.48749548802902714639E+00
    0.68472687563390755017E+00
    0.69350256607935623077E+00
    0.68172781011395500173E+00
    0.70105635897862883521E+00
    0.65298687207459438220E+00
    0.63473684874629165975E+00
    0.62708590822978049761E+00
    0.58462372456743039173E+00
    0.57935488489581898897E+00
    0.66420084811683488546E+00
    0.69615349470147114275E+00
    0.66705882853023701351E+00
    0.65208799065955969088E+00
    0.64929922471993473110E+00
    0.66024396212802305417E+00
    0.69110848314946760063E+00
    0.67954322324208293882E+00
    0.69803771181962481762E+00
    0.69072590479443718436E+00
    0.66720989801229535487E+00
    0.67226517087068582423E+00
    0.68770066189258138856E+00
    0.67110341919038485337E+00
    0.64552976754545166038E+00
    0.65743340620840207134E+00
    0.66268282167524583670E+00
    0.66114037872759590098E+00
    0.65314817838823369112E+00
    0.63831981088284350800E+00
    0.61561927271586358579E+00
    0.68860203493402749597E+00
    0.68965538265865022893E+00
    0.68955548912267061734E+00
    0.68516199651894971190E+00
    0.67572651122919480393E+00
    0.65564938571941633327E+00
    0.62675161640966825516E+00
