# vtk DataFile Version 3.0
LAPLACIEN  2D
ASCII
DATASET UNSTRUCTURED_GRID
 POINTS         391  float
  0.50371505999999999       0.50367786999999997        0.0000000000000000     
  0.29013556000000001       0.29014535000000002        0.0000000000000000     
  0.70165584999999997       0.71206597999999999        0.0000000000000000     
  0.70304188999999995       0.30176619999999998        0.0000000000000000     
  0.30920671999999999       0.71149227999999998        0.0000000000000000     
  0.79044983999999996       0.49884783999999999        0.0000000000000000     
  0.49102621000000002       0.20968644000000000        0.0000000000000000     
  0.49912957000000002       0.77208717000000004        0.0000000000000000     
  0.21724072999999999       0.48989389000000000        0.0000000000000000     
  0.83255933999999998       0.83046598000000005        0.0000000000000000     
  0.16646774000000000       0.17015694000000001        0.0000000000000000     
  0.83054514999999995       0.16736480000000001        0.0000000000000000     
  0.16953130999999999       0.83265739000000005        0.0000000000000000     
  0.42166445000000002       0.36345201999999999        0.0000000000000000     
  0.64462200999999997       0.56347807999999999        0.0000000000000000     
  0.35324633999999999       0.56311191000000005        0.0000000000000000     
  0.65456411000000003       0.84856860999999995        0.0000000000000000     
  0.35141477999999998       0.15563974000000000        0.0000000000000000     
  0.15290967000000000       0.35206625000000003        0.0000000000000000     
  0.82942241000000005       0.34936866000000000        0.0000000000000000     
  0.84390527000000004       0.64441694999999999        0.0000000000000000     
  0.63699174999999997       0.14284276000000001        0.0000000000000000     
  0.15620682999999999       0.64648446999999998        0.0000000000000000     
  0.36426062999999997       0.85756310999999996        0.0000000000000000     
  0.63489340999999999       0.40519052000000000        0.0000000000000000     
  0.52518872999999999       0.65957078000000002        0.0000000000000000     
  0.32158959999999998       0.42298103999999997        0.0000000000000000     
  0.58861710000000000       0.31711036999999997        0.0000000000000000     
  0.42078418000000001       0.69497151999999995        0.0000000000000000     
  0.48608786999999998       0.89334152000000000        0.0000000000000000     
   9.7084320000000002E-002  0.50000000000000000        0.0000000000000000     
  0.90291568000000000       0.50000000000000000        0.0000000000000000     
  0.51392453000000005       0.10668648999999999        0.0000000000000000     
  0.59792566999999996       0.73122754000000001        0.0000000000000000     
  0.74510058999999995       0.41124730999999998        0.0000000000000000     
  0.73212551999999997       0.90191560000000004        0.0000000000000000     
   9.7784830000000003E-002  0.26957329000000002        0.0000000000000000     
  0.26711221000000002        9.8671499999999995E-002   0.0000000000000000     
  0.90191560000000004       0.26787448000000003        0.0000000000000000     
  0.90118569000000004       0.73039821000000005        0.0000000000000000     
  0.73122947000000005        9.8017859999999998E-002   0.0000000000000000     
   9.8084400000000002E-002  0.73212551999999997        0.0000000000000000     
  0.26957329000000002       0.90221516999999996        0.0000000000000000     
  0.39283522999999998       0.25360379000000000        0.0000000000000000     
  0.74480864000000002       0.60495284999999999        0.0000000000000000     
  0.25505132000000003       0.60593640999999998        0.0000000000000000     
  0.52159297999999998       0.40671636000000000        0.0000000000000000     
  0.40768852000000000       0.47699891000000000        0.0000000000000000     
   9.1467049999999994E-002   9.1876959999999994E-002   0.0000000000000000     
  0.90842484999999995       0.90819225000000003        0.0000000000000000     
  0.90820104999999995        9.1566729999999999E-002   0.0000000000000000     
   9.1807449999999999E-002  0.90843574000000005        0.0000000000000000     
  0.27098960000000000       0.20527094000000001        0.0000000000000000     
  0.73457293999999995       0.79835387000000002        0.0000000000000000     
  0.79817773000000003       0.25713470999999999        0.0000000000000000     
  0.20747797000000001       0.72863946000000002        0.0000000000000000     
  0.20175195000000001       0.27583914999999998        0.0000000000000000     
  0.79603889000000005       0.72159035000000005        0.0000000000000000     
  0.71761666000000002       0.19748431999999999        0.0000000000000000     
  0.28462607000000001       0.80251899999999998        0.0000000000000000     
  0.69134598999999997       0.49261972999999998        0.0000000000000000     
  0.44720578999999999       0.58582935999999997        0.0000000000000000     
  0.24242269999999999       0.37228174000000003        0.0000000000000000     
  0.38265623999999998       0.93072131999999996        0.0000000000000000     
  0.60971754000000000       0.91988369000000003        0.0000000000000000     
   7.9163609999999995E-002  0.60979116000000000        0.0000000000000000     
  0.92010649000000000       0.61081183999999999        0.0000000000000000     
  0.61954008999999999        7.1530830000000004E-002   0.0000000000000000     
  0.91882012999999996       0.38917363999999999        0.0000000000000000     
  0.39086346000000000        8.0652249999999995E-002   0.0000000000000000     
   7.9183480000000001E-002  0.38966213000000000        0.0000000000000000     
  0.59114111999999996       0.49294315000000000        0.0000000000000000     
  0.63337980999999999       0.64485914000000000        0.0000000000000000     
  0.50012352000000004       0.29676539000000002        0.0000000000000000     
  0.82552601000000003       0.92753492000000004        0.0000000000000000     
  0.92774772999999999       0.82498556999999995        0.0000000000000000     
   7.1970870000000006E-002  0.17510291000000000        0.0000000000000000     
  0.17422821999999999        7.2635640000000001E-002   0.0000000000000000     
  0.82510813000000005        7.2134840000000006E-002   0.0000000000000000     
  0.92754665000000003       0.17446275999999999        0.0000000000000000     
  0.17501022999999999       0.92789951999999998        0.0000000000000000     
   7.2464680000000004E-002  0.82554053000000005        0.0000000000000000     
  0.30731587999999999       0.50885354999999999        0.0000000000000000     
  0.59033407999999998       0.22171178999999999        0.0000000000000000     
  0.40109191999999999       0.78725542000000004        0.0000000000000000     
  0.35420917000000002       0.63754104000000000        0.0000000000000000     
  0.15983976999999999       0.56665573000000002        0.0000000000000000     
  0.84108459999999996       0.56757886999999996        0.0000000000000000     
  0.83902096000000004       0.43344338999999998        0.0000000000000000     
  0.43230028999999998       0.16004268999999999        0.0000000000000000     
  0.57536027999999995       0.83041363999999995        0.0000000000000000     
  0.15771898000000001       0.42747892999999998        0.0000000000000000     
  0.34021692999999997       0.34221559000000001        0.0000000000000000     
  0.56002271999999997       0.57501117999999996        0.0000000000000000     
  0.65344329000000001       0.78147597999999996        0.0000000000000000     
   0.0000000000000000        0.0000000000000000        0.0000000000000000     
   1.0000000000000000        0.0000000000000000        0.0000000000000000     
   1.0000000000000000        1.0000000000000000        0.0000000000000000     
   0.0000000000000000        1.0000000000000000        0.0000000000000000     
  0.11111111000000000        0.0000000000000000        0.0000000000000000     
  0.22222222000000000        0.0000000000000000        0.0000000000000000     
  0.33333332999999998        0.0000000000000000        0.0000000000000000     
  0.44444444000000000        0.0000000000000000        0.0000000000000000     
  0.55555555999999995        0.0000000000000000        0.0000000000000000     
  0.66666667000000002        0.0000000000000000        0.0000000000000000     
  0.77777777999999997        0.0000000000000000        0.0000000000000000     
  0.88888889000000004        0.0000000000000000        0.0000000000000000     
   1.0000000000000000       0.11111111000000000        0.0000000000000000     
   1.0000000000000000       0.22222222000000000        0.0000000000000000     
   1.0000000000000000       0.33333332999999998        0.0000000000000000     
   1.0000000000000000       0.44444444000000000        0.0000000000000000     
   1.0000000000000000       0.55555555999999995        0.0000000000000000     
   1.0000000000000000       0.66666667000000002        0.0000000000000000     
   1.0000000000000000       0.77777777999999997        0.0000000000000000     
   1.0000000000000000       0.88888889000000004        0.0000000000000000     
  0.88888889000000004        1.0000000000000000        0.0000000000000000     
  0.77777777999999997        1.0000000000000000        0.0000000000000000     
  0.66666667000000002        1.0000000000000000        0.0000000000000000     
  0.55555555999999995        1.0000000000000000        0.0000000000000000     
  0.44444444000000000        1.0000000000000000        0.0000000000000000     
  0.33333332999999998        1.0000000000000000        0.0000000000000000     
  0.22222222000000000        1.0000000000000000        0.0000000000000000     
  0.11111111000000000        1.0000000000000000        0.0000000000000000     
   0.0000000000000000       0.11111111000000000        0.0000000000000000     
   0.0000000000000000       0.22222222000000000        0.0000000000000000     
[...]
 CELL_DATA         354
 SCALARS E float
 LOOKUP_TABLE default
    0.70755082742216912628E+00
    0.70245254179100380387E+00
    0.64952093968277135883E+00
    0.59456316472582859678E+00
    0.74074442134690710038E+00
    0.73260297980912780780E+00
    0.69583602704421487761E+00
    0.71894279905644542517E+00
    0.69179538085784453294E+00
    0.67826798022333267824E+00
    0.62123141676957305268E+00
    0.64607460201487021401E+00
    0.61949679469523755149E+00
    0.61565179933866187589E+00
    0.63464613429053573501E+00
    0.62566180845826568913E+00
    0.64439721368353963804E+00
    0.67818260758798731835E+00
    0.72408817823990512252E+00
    0.70316828406753106862E+00
    0.71127553700021706184E+00
    0.70611459908867146851E+00
    0.68007388078486075145E+00
    0.69295245615244960291E+00
    0.66971511709590103578E+00
    0.67869422521182176666E+00
    0.70078505256845957661E+00
    0.69371838334709545748E+00
    0.70127307435411179171E+00
    0.71342866040936603333E+00
    0.72112208927595156105E+00
    0.72267257374743432141E+00
    0.70860397966868493569E+00
    0.70665247784954965393E+00
    0.69101700149231715109E+00
    0.70053145087661228274E+00
    0.66677923287399243346E+00
    0.67458074916824406486E+00
    0.68234419008020130715E+00
    0.67785526421925945684E+00
    0.68421988626822327628E+00
    0.68839974237583434480E+00
    0.68582600429161710842E+00
    0.68891325875253062172E+00
    0.68399962901287747474E+00
    0.67912138622752993289E+00
    0.66800117350900278801E+00
    0.67338452393010717056E+00
    0.65686963004171083913E+00
    0.64578024807862766110E+00
    0.62309901321853711220E+00
    0.63560622246835130067E+00
    0.71508349723428965561E+00
    0.71890983662655616460E+00
    0.71109941473406645951E+00
    0.71410371974217734525E+00
    0.70698384829865879020E+00
    0.71080423820534954782E+00
    0.71387631217975600073E+00
    0.71511358834373095483E+00
    0.70758018349950901893E+00
    0.70644473193264212263E+00
    0.68932517192843978382E+00
    0.70147131911187099451E+00
    0.67321793511273297916E+00
    0.66154767921655699414E+00
    0.63322376503836230732E+00
    0.64804285142267104014E+00
    0.62587386792927324208E+00
    0.67007750877602123563E+00
    0.71257262903068863125E+00
    0.64314279718143285702E+00
    0.69890243447760769246E+00
    0.65112156964389522606E+00
    0.69317045864973514391E+00
    0.72897299842756602128E+00
    0.73001790313474423932E+00
    0.69168318365243586232E+00
    0.72825081132877445000E+00
    0.71839049162334189802E+00
    0.74553724954604827513E+00
    0.73515708667531298737E+00
    0.73455747778956048677E+00
    0.72461981226496274822E+00
    0.65256003960729380697E+00
    0.68838543182125122577E+00
    0.78029978404379896073E+00
    0.64931728736325966533E+00
    0.64984767967333578742E+00
    0.65043364587730601034E+00
    0.71519517039697411143E+00
    0.76414888831011351655E+00
    0.75792648521743732903E+00
    0.75113824502321702159E+00
    0.74685020521949618821E+00
    0.75276367273647604161E+00
    0.76547747883477379460E+00
    0.72572189343950144202E+00
    0.66760387629745210347E+00
    0.70693733732817665150E+00
    0.69640349283249070034E+00
    0.69663722284491602643E+00
    0.70571975413513354791E+00
    0.66352587170380172843E+00
    0.66689911606555063450E+00
    0.66523962441855877259E+00
    0.65752492516674032608E+00
    0.63862351524149940651E+00
    0.74226021001663200494E+00
    0.73962262753974949980E+00
    0.76208581986174739331E+00
    0.74085507207782397288E+00
    0.75516631704800729619E+00
    0.74575364485905359935E+00
    0.74000244593713626617E+00
    0.74887673893011141857E+00
    0.74592412261983198629E+00
    0.72453857497119500408E+00
    0.74619839831808432162E+00
    0.72709800287662273988E+00
    0.73020912459177456100E+00
    0.73405960153346272445E+00
    0.73956212561002676598E+00
    0.71785917440123803157E+00
    0.75644536500978365456E+00
    0.75454802825023725710E+00
    0.70981768728010075087E+00
    0.72178543116698101745E+00
    0.73723277141128373824E+00
    0.73026595770961499898E+00
    0.73747895434195609443E+00
    0.74604257805093088241E+00
    0.74902725788650259542E+00
    0.72729316694077594807E+00
    0.72584555692923302672E+00
    0.70451361309722915216E+00
    0.68087251556412353715E+00
    0.70544894854780859639E+00
    0.70280151131986645652E+00
    0.68825762836241843878E+00
    0.67912463688699531428E+00
    0.68590815169441277099E+00
    0.71335975421748543113E+00
    0.70589672461702590578E+00
    0.68079342424023558955E+00
    0.73996514584640515899E+00
    0.73575440738830621967E+00
    0.68064247294901647489E+00
    0.68555177055962246424E+00
    0.66191954117438644989E+00
    0.64327983479554462498E+00
    0.66800832802941301214E+00
    0.66613102733086548835E+00
    0.66446998406869794973E+00
    0.64295674271696379165E+00
    0.73636276873011663469E+00
    0.68360391572659195969E+00
    0.65630386527576789479E+00
    0.72977606619196055959E+00
    0.70106496145096630634E+00
    0.76213398826601008729E+00
    0.67242770019791564540E+00
    0.69981106159482886486E+00
    0.72127699117831900466E+00
    0.73560699136077534188E+00
    0.75911954367342593386E+00
    0.75711501617778598217E+00
    0.76191468997596967228E+00
    0.74430101575519413970E+00
    0.74859055998547741062E+00
    0.74260021723184477249E+00
    0.67117814992515278938E+00
    0.70750556773487094375E+00
    0.72675610408974888887E+00
    0.67268338806079108760E+00
    0.76408533606936046567E+00
    0.73429575092122290059E+00
    0.71781551113948027787E+00
    0.76771097380641961649E+00
    0.73958469361528500485E+00
    0.64863827909351134959E+00
    0.71735140985588041751E+00
    0.67421629233716062757E+00
    0.72469821341715923158E+00
    0.67966526185211173505E+00
    0.76830098246934852568E+00
    0.72160970513504385515E+00
    0.74306026481917686333E+00
    0.76453292347548851282E+00
    0.72915540844073944982E+00
    0.64421196734253083349E+00
    0.68443354456561134036E+00
    0.63009342903674236958E+00
    0.64699331512616831130E+00
    0.64862975612498030564E+00
    0.75458785348571333351E+00
    0.73426773983367055187E+00
    0.73924981964173996918E+00
    0.76012245570771397318E+00
    0.74227445793030488730E+00
    0.72231615511991986711E+00
    0.73740445683001498711E+00
    0.73009081186783997275E+00
    0.72191841273587653571E+00
    0.73432158144467229999E+00
    0.73675469748809052639E+00
    0.63572643032548570297E+00
    0.66686455926302101727E+00
    0.64823610435166001409E+00
    0.64376786028385102334E+00
    0.73751518486470901692E+00
    0.72994991818250642979E+00
    0.71630671711969495785E+00
    0.72829300563903875965E+00
    0.71727331278951189653E+00
    0.67188457351680141993E+00
    0.73329667213321936270E+00
    0.70744168104221660798E+00
    0.69498512596307193689E+00
    0.74711971487854866858E+00
    0.78651518765003325395E+00
    0.80360396088288088556E+00
    0.72064794675366483645E+00
    0.74650768245307619342E+00
    0.73952908447074139353E+00
    0.70652255603611013868E+00
    0.74107507174482301071E+00
    0.75837213664161218230E+00
    0.75662904427165866839E+00
    0.74943172259459889251E+00
    0.76078023448553011576E+00
    0.74847945173381558170E+00
    0.76835669163262521053E+00
    0.74530387351433347032E+00
    0.74300837691531596008E+00
    0.73147604124630982714E+00
    0.74814273839166411939E+00
    0.62592848954334701084E+00
    0.69259723109666759822E+00
    0.69525934763266850069E+00
    0.68046067450467795368E+00
    0.73395458677069103093E+00
    0.74562628577501555149E+00
    0.73229469079022702083E+00
    0.65607874417072165052E+00
    0.64967123697302009422E+00
    0.75298848331326917460E+00
    0.74619245800663491774E+00
    0.70928015357612239633E+00
    0.75047156109803669910E+00
    0.75947599059800330323E+00
    0.73267442691983752923E+00
    0.73704136071689485554E+00
    0.74582405613764013452E+00
    0.71571155996544044697E+00
    0.71737236223027034399E+00
    0.72130744943089919463E+00
    0.69748222529521786139E+00
    0.75910737638958547535E+00
    0.76787522585413503506E+00
    0.72013783828901567485E+00
    0.68360973846190464798E+00
    0.70060233719881637171E+00
    0.66894527376020307408E+00
    0.74289959924253945456E+00
    0.74699621955383810334E+00
    0.68862847482307487645E+00
    0.73244736922577513560E+00
    0.72328218038508307330E+00
    0.67948688135182289116E+00
    0.66751191799684528316E+00
    0.68482668478736241635E+00
    0.65049987387955732210E+00
    0.63698849711828697817E+00
    0.72242755264308144980E+00
    0.72210190120302120143E+00
    0.73137234488365998608E+00
    0.70617274558357601144E+00
    0.73876720877770629681E+00
    0.76736385301015574978E+00
    0.76056979670835911378E+00
    0.73105300187722666028E+00
    0.66185213113588448053E+00
    0.62409851914063740885E+00
    0.70419544114869991880E+00
    0.69103247773025122669E+00
    0.67592700402701488827E+00
    0.74413198493911913989E+00
    0.74520932143738027875E+00
    0.70716557825444636975E+00
    0.71794739425756326501E+00
    0.72324189691505691435E+00
    0.72583336370457418596E+00
    0.66756232072985199899E+00
    0.67234747989017507042E+00
    0.73681219576469592081E+00
    0.75223193522251752263E+00
    0.75420108028209498219E+00
    0.66269493357343989270E+00
    0.74869569494199705861E+00
    0.72572612614117937291E+00
    0.62924857685725943401E+00
    0.73276688162102854296E+00
    0.65132453710623239296E+00
    0.71138076231872460209E+00
    0.71461554898006951486E+00
    0.70522736595102530899E+00
    0.71802026630360393789E+00
    0.75563420462270591837E+00
    0.75473198516445760831E+00
    0.74828275100974284140E+00
    0.73206680270340107608E+00
    0.70300492773973222160E+00
    0.76396033377306782342E+00
    0.67394228858170590613E+00
    0.72797581932903632218E+00
    0.71549774816383870935E+00
    0.74777797447642679884E+00
    0.72085593228417577105E+00
    0.69012473726411882602E+00
    0.71596416454189670819E+00
    0.69900093314521238863E+00
    0.65380948788473869371E+00
    0.62647161751227742332E+00
    0.57659132955170078194E+00
    0.58737733777641298882E+00
    0.72203851883656255950E+00
    0.68370768433357020921E+00
    0.64949405434752849331E+00
    0.61654280099444347396E+00
    0.60454248577600788739E+00
    0.62734324100282568004E+00
    0.68508601572704086458E+00
    0.68666948238773073410E+00
    0.66752349926305065697E+00
    0.67300200067738091825E+00
    0.68887375887613666592E+00
    0.70242969496048013323E+00
    0.70088812280964829515E+00
    0.69162886877621365667E+00
    0.64912029355093681104E+00
    0.65623125739400800516E+00
    0.66126574699366624799E+00
    0.65871389690089210411E+00
    0.65168883012752343298E+00
    0.63498654053061198699E+00
    0.61420428386914815988E+00
    0.69655087867706755311E+00
    0.69187896735857823405E+00
    0.69205024890663269233E+00
    0.69041731071145351351E+00
    0.68166227653368793860E+00
    0.65938155589274793922E+00
    0.63386889878362828732E+00
