# vtk DataFile Version 3.0
LAPLACIEN  2D
ASCII
DATASET UNSTRUCTURED_GRID
 POINTS         391  float
  0.50371505999999999       0.50367786999999997        0.0000000000000000     
  0.29013556000000001       0.29014535000000002        0.0000000000000000     
  0.70165584999999997       0.71206597999999999        0.0000000000000000     
  0.70304188999999995       0.30176619999999998        0.0000000000000000     
  0.30920671999999999       0.71149227999999998        0.0000000000000000     
  0.79044983999999996       0.49884783999999999        0.0000000000000000     
  0.49102621000000002       0.20968644000000000        0.0000000000000000     
  0.49912957000000002       0.77208717000000004        0.0000000000000000     
  0.21724072999999999       0.48989389000000000        0.0000000000000000     
  0.83255933999999998       0.83046598000000005        0.0000000000000000     
  0.16646774000000000       0.17015694000000001        0.0000000000000000     
  0.83054514999999995       0.16736480000000001        0.0000000000000000     
  0.16953130999999999       0.83265739000000005        0.0000000000000000     
  0.42166445000000002       0.36345201999999999        0.0000000000000000     
  0.64462200999999997       0.56347807999999999        0.0000000000000000     
  0.35324633999999999       0.56311191000000005        0.0000000000000000     
  0.65456411000000003       0.84856860999999995        0.0000000000000000     
  0.35141477999999998       0.15563974000000000        0.0000000000000000     
  0.15290967000000000       0.35206625000000003        0.0000000000000000     
  0.82942241000000005       0.34936866000000000        0.0000000000000000     
  0.84390527000000004       0.64441694999999999        0.0000000000000000     
  0.63699174999999997       0.14284276000000001        0.0000000000000000     
  0.15620682999999999       0.64648446999999998        0.0000000000000000     
  0.36426062999999997       0.85756310999999996        0.0000000000000000     
  0.63489340999999999       0.40519052000000000        0.0000000000000000     
  0.52518872999999999       0.65957078000000002        0.0000000000000000     
  0.32158959999999998       0.42298103999999997        0.0000000000000000     
  0.58861710000000000       0.31711036999999997        0.0000000000000000     
  0.42078418000000001       0.69497151999999995        0.0000000000000000     
  0.48608786999999998       0.89334152000000000        0.0000000000000000     
   9.7084320000000002E-002  0.50000000000000000        0.0000000000000000     
  0.90291568000000000       0.50000000000000000        0.0000000000000000     
  0.51392453000000005       0.10668648999999999        0.0000000000000000     
  0.59792566999999996       0.73122754000000001        0.0000000000000000     
  0.74510058999999995       0.41124730999999998        0.0000000000000000     
  0.73212551999999997       0.90191560000000004        0.0000000000000000     
   9.7784830000000003E-002  0.26957329000000002        0.0000000000000000     
  0.26711221000000002        9.8671499999999995E-002   0.0000000000000000     
  0.90191560000000004       0.26787448000000003        0.0000000000000000     
  0.90118569000000004       0.73039821000000005        0.0000000000000000     
  0.73122947000000005        9.8017859999999998E-002   0.0000000000000000     
   9.8084400000000002E-002  0.73212551999999997        0.0000000000000000     
  0.26957329000000002       0.90221516999999996        0.0000000000000000     
  0.39283522999999998       0.25360379000000000        0.0000000000000000     
  0.74480864000000002       0.60495284999999999        0.0000000000000000     
  0.25505132000000003       0.60593640999999998        0.0000000000000000     
  0.52159297999999998       0.40671636000000000        0.0000000000000000     
  0.40768852000000000       0.47699891000000000        0.0000000000000000     
   9.1467049999999994E-002   9.1876959999999994E-002   0.0000000000000000     
  0.90842484999999995       0.90819225000000003        0.0000000000000000     
  0.90820104999999995        9.1566729999999999E-002   0.0000000000000000     
   9.1807449999999999E-002  0.90843574000000005        0.0000000000000000     
  0.27098960000000000       0.20527094000000001        0.0000000000000000     
  0.73457293999999995       0.79835387000000002        0.0000000000000000     
  0.79817773000000003       0.25713470999999999        0.0000000000000000     
  0.20747797000000001       0.72863946000000002        0.0000000000000000     
  0.20175195000000001       0.27583914999999998        0.0000000000000000     
  0.79603889000000005       0.72159035000000005        0.0000000000000000     
  0.71761666000000002       0.19748431999999999        0.0000000000000000     
  0.28462607000000001       0.80251899999999998        0.0000000000000000     
  0.69134598999999997       0.49261972999999998        0.0000000000000000     
  0.44720578999999999       0.58582935999999997        0.0000000000000000     
  0.24242269999999999       0.37228174000000003        0.0000000000000000     
  0.38265623999999998       0.93072131999999996        0.0000000000000000     
  0.60971754000000000       0.91988369000000003        0.0000000000000000     
   7.9163609999999995E-002  0.60979116000000000        0.0000000000000000     
  0.92010649000000000       0.61081183999999999        0.0000000000000000     
  0.61954008999999999        7.1530830000000004E-002   0.0000000000000000     
  0.91882012999999996       0.38917363999999999        0.0000000000000000     
  0.39086346000000000        8.0652249999999995E-002   0.0000000000000000     
   7.9183480000000001E-002  0.38966213000000000        0.0000000000000000     
  0.59114111999999996       0.49294315000000000        0.0000000000000000     
  0.63337980999999999       0.64485914000000000        0.0000000000000000     
  0.50012352000000004       0.29676539000000002        0.0000000000000000     
  0.82552601000000003       0.92753492000000004        0.0000000000000000     
  0.92774772999999999       0.82498556999999995        0.0000000000000000     
   7.1970870000000006E-002  0.17510291000000000        0.0000000000000000     
  0.17422821999999999        7.2635640000000001E-002   0.0000000000000000     
  0.82510813000000005        7.2134840000000006E-002   0.0000000000000000     
  0.92754665000000003       0.17446275999999999        0.0000000000000000     
  0.17501022999999999       0.92789951999999998        0.0000000000000000     
   7.2464680000000004E-002  0.82554053000000005        0.0000000000000000     
  0.30731587999999999       0.50885354999999999        0.0000000000000000     
  0.59033407999999998       0.22171178999999999        0.0000000000000000     
  0.40109191999999999       0.78725542000000004        0.0000000000000000     
  0.35420917000000002       0.63754104000000000        0.0000000000000000     
  0.15983976999999999       0.56665573000000002        0.0000000000000000     
  0.84108459999999996       0.56757886999999996        0.0000000000000000     
  0.83902096000000004       0.43344338999999998        0.0000000000000000     
  0.43230028999999998       0.16004268999999999        0.0000000000000000     
  0.57536027999999995       0.83041363999999995        0.0000000000000000     
  0.15771898000000001       0.42747892999999998        0.0000000000000000     
  0.34021692999999997       0.34221559000000001        0.0000000000000000     
  0.56002271999999997       0.57501117999999996        0.0000000000000000     
  0.65344329000000001       0.78147597999999996        0.0000000000000000     
   0.0000000000000000        0.0000000000000000        0.0000000000000000     
   1.0000000000000000        0.0000000000000000        0.0000000000000000     
   1.0000000000000000        1.0000000000000000        0.0000000000000000     
   0.0000000000000000        1.0000000000000000        0.0000000000000000     
  0.11111111000000000        0.0000000000000000        0.0000000000000000     
  0.22222222000000000        0.0000000000000000        0.0000000000000000     
  0.33333332999999998        0.0000000000000000        0.0000000000000000     
  0.44444444000000000        0.0000000000000000        0.0000000000000000     
  0.55555555999999995        0.0000000000000000        0.0000000000000000     
  0.66666667000000002        0.0000000000000000        0.0000000000000000     
  0.77777777999999997        0.0000000000000000        0.0000000000000000     
  0.88888889000000004        0.0000000000000000        0.0000000000000000     
   1.0000000000000000       0.11111111000000000        0.0000000000000000     
   1.0000000000000000       0.22222222000000000        0.0000000000000000     
   1.0000000000000000       0.33333332999999998        0.0000000000000000     
   1.0000000000000000       0.44444444000000000        0.0000000000000000     
   1.0000000000000000       0.55555555999999995        0.0000000000000000     
   1.0000000000000000       0.66666667000000002        0.0000000000000000     
   1.0000000000000000       0.77777777999999997        0.0000000000000000     
   1.0000000000000000       0.88888889000000004        0.0000000000000000     
  0.88888889000000004        1.0000000000000000        0.0000000000000000     
  0.77777777999999997        1.0000000000000000        0.0000000000000000     
  0.66666667000000002        1.0000000000000000        0.0000000000000000     
  0.55555555999999995        1.0000000000000000        0.0000000000000000     
  0.44444444000000000        1.0000000000000000        0.0000000000000000     
  0.33333332999999998        1.0000000000000000        0.0000000000000000     
  0.22222222000000000        1.0000000000000000        0.0000000000000000     
  0.11111111000000000        1.0000000000000000        0.0000000000000000     
   0.0000000000000000       0.11111111000000000        0.0000000000000000     
   0.0000000000000000       0.22222222000000000        0.0000000000000000     
[...]
 CELL_DATA         354
 SCALARS E float
 LOOKUP_TABLE default
    0.70800583509530934379E+00
    0.70308220481757677245E+00
    0.64988955191126340782E+00
    0.59490684752435585292E+00
    0.74085610132106294312E+00
    0.73286402191533617234E+00
    0.69649657889247618137E+00
    0.71941327520195774703E+00
    0.69228156973920096373E+00
    0.67879848370447337658E+00
    0.62209955475433886818E+00
    0.64685424629031496035E+00
    0.62040861567998106807E+00
    0.61668915307289418060E+00
    0.63539579264345613652E+00
    0.62648811951668315068E+00
    0.64529354791428705784E+00
    0.67885100136293208273E+00
    0.72434115019006484193E+00
    0.70361336488212566920E+00
    0.71177162046523079209E+00
    0.70664609960577129399E+00
    0.68086160300463982598E+00
    0.69362761025047048324E+00
    0.67054438912229574754E+00
    0.67944297177729207071E+00
    0.70132165736534302081E+00
    0.69431749120434071987E+00
    0.70187523624939829325E+00
    0.71394001759878922275E+00
    0.72145781912878392816E+00
    0.72303440330216495191E+00
    0.70906107301027665457E+00
    0.70699856883770717531E+00
    0.69112253297220549442E+00
    0.70072169750295865143E+00
    0.66708421612578439053E+00
    0.67487161458083300136E+00
    0.68279201187682769802E+00
    0.67823477906026596873E+00
    0.68465576307635489517E+00
    0.68879209514678196857E+00
    0.68631777891026546357E+00
    0.68933544705792604290E+00
    0.68452188736180774598E+00
    0.67959470566481994247E+00
    0.66839992236138345838E+00
    0.67379054067646726445E+00
    0.65729212201756870293E+00
    0.64612244790212691736E+00
    0.62332380246162555348E+00
    0.63584550338501311106E+00
    0.71550902907403890474E+00
    0.71930480845314714866E+00
    0.71165988668708168863E+00
    0.71460171982886433462E+00
    0.70753357149622331246E+00
    0.71129312151507040340E+00
    0.71430507967443923611E+00
    0.71554672512614847513E+00
    0.70805284928625267238E+00
    0.70685617887580942664E+00
    0.68968657172754554985E+00
    0.70180973005985891611E+00
    0.67363761605689442824E+00
    0.66186766639469896134E+00
    0.63337762216206694443E+00
    0.64824459997042249704E+00
    0.62582426832561977026E+00
    0.66995964484039993714E+00
    0.71223990937729264594E+00
    0.64318089616020579502E+00
    0.69861477911382241501E+00
    0.65144951492521796510E+00
    0.69332703472725865090E+00
    0.72879725436865316901E+00
    0.72973358277577271558E+00
    0.69162866976636072636E+00
    0.72844485022348404168E+00
    0.71854969716401628776E+00
    0.74560415727081286175E+00
    0.73532432329446495434E+00
    0.73450843000984211706E+00
    0.72491318413634975304E+00
    0.65230034695114647025E+00
    0.68675751479439051117E+00
    0.77820562528945902425E+00
    0.64849828815378940394E+00
    0.64949534169491163205E+00
    0.64906360416530883839E+00
    0.71332644873129402718E+00
    0.76394100618662019730E+00
    0.75776770616152344662E+00
    0.75107343479259003338E+00
    0.74683237705556715369E+00
    0.75269170888320147128E+00
    0.76522937938380419798E+00
    0.72558249683718845091E+00
    0.66768544471930280082E+00
    0.70689744631027051636E+00
    0.69618932770176222835E+00
    0.69680755887253420511E+00
    0.70565134160141673725E+00
    0.66282243452932865235E+00
    0.66612290562397480365E+00
    0.66336815511447433380E+00
    0.65571475556846381405E+00
    0.63818773092752567599E+00
    0.74224068466062198546E+00
    0.73969539795200156540E+00
    0.76190359290912323953E+00
    0.74093291644519110317E+00
    0.75510949249161041230E+00
    0.74579120013424526903E+00
    0.73975716972408200878E+00
    0.74887030995977743597E+00
    0.74582721593368894730E+00
    0.72456005575444326627E+00
    0.74598520035339199730E+00
    0.72728640420542012279E+00
    0.73033046204288887271E+00
    0.73408040165658627885E+00
    0.73961664409527549946E+00
    0.71797197036970805684E+00
    0.75631130818880631939E+00
    0.75445062341955926311E+00
    0.71003062128483240834E+00
    0.72195662510373703746E+00
    0.73733370548356091945E+00
    0.73032076614470475828E+00
    0.73766010847061525002E+00
    0.74583108702913936128E+00
    0.74887084309218931999E+00
    0.72756565927575211905E+00
    0.72610018363500683503E+00
    0.70442989358142371614E+00
    0.68085211872540241096E+00
    0.70564352548296183087E+00
    0.70248462218728868756E+00
    0.68792772718866324055E+00
    0.67940598786099815065E+00
    0.68618741060619015126E+00
    0.71343499025410250791E+00
    0.70599700264874443167E+00
    0.68090283145299979051E+00
    0.73984880868816604860E+00
    0.73566688927883272520E+00
    0.68084658406298204092E+00
    0.68574937989194884036E+00
    0.66188058837511287713E+00
    0.64295258003698896321E+00
    0.66685618360822851436E+00
    0.66582975222142226635E+00
    0.66315014377451919625E+00
    0.64297963040514360955E+00
    0.73594473009987582124E+00
    0.68347878182008003911E+00
    0.65639576313451564182E+00
    0.72944617809324852065E+00
    0.70090107585052496830E+00
    0.76179029618615423658E+00
    0.67280438480173443416E+00
    0.69998888286281835125E+00
    0.72132922766805318560E+00
    0.73553890754529449580E+00
    0.75889273260348788508E+00
    0.75698286987812402060E+00
    0.76166648383077639739E+00
    0.74432638040827869830E+00
    0.74859009727492087372E+00
    0.74221710508145410934E+00
    0.67110677522311001919E+00
    0.70737521262183344906E+00
    0.72634388054002430035E+00
    0.67256696639240698410E+00
    0.76389832549264125028E+00
    0.73432509477205942794E+00
    0.71802857355378912896E+00
    0.76748902574198907267E+00
    0.73967861687003622073E+00
    0.64872507645491228612E+00
    0.71708304516377541216E+00
    0.67410116071912673519E+00
    0.72443051758172838372E+00
    0.67977200473062460162E+00
    0.76806798811973731045E+00
    0.72182240154747356886E+00
    0.74312603004102129045E+00
    0.76431376969289399614E+00
    0.72928565313051441077E+00
    0.64383307319753657616E+00
    0.68407904330275060012E+00
    0.62989694771839432885E+00
    0.64682730801167886980E+00
    0.64791508756015359083E+00
    0.75439684633361692168E+00
    0.73447654874802237313E+00
    0.73934705014374257903E+00
    0.75992566349716639262E+00
    0.74238166031975072467E+00
    0.72248094867413992226E+00
    0.73729980877460343791E+00
    0.73023077978307759928E+00
    0.72201637186478284658E+00
    0.73442751952599683030E+00
    0.73450782452923457644E+00
    0.63503762381654149660E+00
    0.66553211497651632023E+00
    0.64789377684412774450E+00
    0.64311292001153452791E+00
    0.73749133010294309898E+00
    0.73001113671998107968E+00
    0.71627284357832021744E+00
    0.72820107842288162026E+00
    0.71711191742294810858E+00
    0.67197743443946589270E+00
    0.73299523398038557431E+00
    0.70746409899190298987E+00
    0.69483225814134352838E+00
    0.74486563680391626452E+00
    0.78439673059165193614E+00
    0.80175898755503816062E+00
    0.72076401849103710617E+00
    0.74651401612406509400E+00
    0.73956771655525566089E+00
    0.70681593031846401409E+00
    0.74098110325269195275E+00
    0.75819030507870355251E+00
    0.75647922856641458544E+00
    0.74938623165589346442E+00
    0.76061029403992896913E+00
    0.74850214137486614785E+00
    0.76813065108166644901E+00
    0.74526724332902660741E+00
    0.74277295300175405490E+00
    0.73144552369160809047E+00
    0.74775881412043554430E+00
    0.62610371321734636929E+00
    0.69236617789772869624E+00
    0.69411425685839822641E+00
    0.68000593352625082755E+00
    0.73394003608488378454E+00
    0.74567266467382498085E+00
    0.73249174880919054598E+00
    0.65597022068460186794E+00
    0.64999204289129941525E+00
    0.75284377156964144007E+00
    0.74599706260627252075E+00
    0.70945234060885686844E+00
    0.75036512578732561529E+00
    0.75933669395911729261E+00
    0.73290398641436138583E+00
    0.73682521423355595847E+00
    0.74540610087959957575E+00
    0.71605510151153506371E+00
    0.71703082978283916304E+00
    0.72121990810375347092E+00
    0.69771416836293198571E+00
    0.75898464794447340065E+00
    0.76761986784616276225E+00
    0.72040274300040141320E+00
    0.68324742749726352642E+00
    0.70021547786003113245E+00
    0.66929620124590694097E+00
    0.74280391980739768343E+00
    0.74679593351879147711E+00
    0.68885503993705299308E+00
    0.73239917259839060204E+00
    0.72318384720641426533E+00
    0.67970146827137967183E+00
    0.66769753578250068404E+00
    0.68372447195927321673E+00
    0.65024207791895471953E+00
    0.63716054518737264001E+00
    0.72266200948033798568E+00
    0.72173424796916318957E+00
    0.73116819143253297675E+00
    0.70640117649413380896E+00
    0.73886545818119808704E+00
    0.76697160399971520128E+00
    0.76030267809322893413E+00
    0.73124097036199398048E+00
    0.66141336033397835070E+00
    0.62368142613389510043E+00
    0.70235426405383594162E+00
    0.69103326000652098848E+00
    0.67627805206027036267E+00
    0.74422644173923246935E+00
    0.74530176787253932247E+00
    0.70722811664284535027E+00
    0.71797958031931274903E+00
    0.72331794981802977063E+00
    0.72594815025693348876E+00
    0.66760575436510161129E+00
    0.67238936226045009636E+00
    0.73664109048035864014E+00
    0.75220496499784927913E+00
    0.75417040918308742015E+00
    0.66234470190753780283E+00
    0.74860970414380290094E+00
    0.72567920206428482288E+00
    0.62792178303692880448E+00
    0.73293066101437753801E+00
    0.65123842949767440924E+00
    0.71159845786187292394E+00
    0.71436115684394452252E+00
    0.70557841075043326029E+00
    0.71776165536442126935E+00
    0.75546454101074300702E+00
    0.75464750556798876335E+00
    0.74819785177187625447E+00
    0.73180111391268043430E+00
    0.70265067587429907991E+00
    0.76376781842922614185E+00
    0.67386896875844648491E+00
    0.72770267558740453495E+00
    0.71345503070811255864E+00
    0.74780693604542325392E+00
    0.72109171056072729478E+00
    0.69073288199498561468E+00
    0.71642740980996744149E+00
    0.69974491494736756891E+00
    0.65402771758566780047E+00
    0.62693281183250126887E+00
    0.57694933564479289334E+00
    0.58765181792983489650E+00
    0.72243705744808783820E+00
    0.68452671200737591484E+00
    0.65059330037696094795E+00
    0.61785591273361362141E+00
    0.60600353381841898237E+00
    0.62861120046152940688E+00
    0.68582431120611730968E+00
    0.68754203562553273255E+00
    0.66863238573932259889E+00
    0.67405462681245886802E+00
    0.68973937155526421350E+00
    0.70312255422898739532E+00
    0.70143029205893803191E+00
    0.69193232225569611948E+00
    0.64961190053849882098E+00
    0.65685884830249752220E+00
    0.66190870306938387468E+00
    0.65938010443630301616E+00
    0.65229088526486855848E+00
    0.63554903517885930064E+00
    0.61460765632373259848E+00
    0.69719649032938690869E+00
    0.69264786035323167024E+00
    0.69279278565765523012E+00
    0.69108742842568660070E+00
    0.68225092040652313141E+00
    0.65991531486612742263E+00
    0.63420488978136035918E+00
