# vtk DataFile Version 3.0
LAPLACIEN  2D
ASCII
DATASET UNSTRUCTURED_GRID
 POINTS         391  float
  0.50371505999999999       0.50367786999999997        0.0000000000000000     
  0.29013556000000001       0.29014535000000002        0.0000000000000000     
  0.70165584999999997       0.71206597999999999        0.0000000000000000     
  0.70304188999999995       0.30176619999999998        0.0000000000000000     
  0.30920671999999999       0.71149227999999998        0.0000000000000000     
  0.79044983999999996       0.49884783999999999        0.0000000000000000     
  0.49102621000000002       0.20968644000000000        0.0000000000000000     
  0.49912957000000002       0.77208717000000004        0.0000000000000000     
  0.21724072999999999       0.48989389000000000        0.0000000000000000     
  0.83255933999999998       0.83046598000000005        0.0000000000000000     
  0.16646774000000000       0.17015694000000001        0.0000000000000000     
  0.83054514999999995       0.16736480000000001        0.0000000000000000     
  0.16953130999999999       0.83265739000000005        0.0000000000000000     
  0.42166445000000002       0.36345201999999999        0.0000000000000000     
  0.64462200999999997       0.56347807999999999        0.0000000000000000     
  0.35324633999999999       0.56311191000000005        0.0000000000000000     
  0.65456411000000003       0.84856860999999995        0.0000000000000000     
  0.35141477999999998       0.15563974000000000        0.0000000000000000     
  0.15290967000000000       0.35206625000000003        0.0000000000000000     
  0.82942241000000005       0.34936866000000000        0.0000000000000000     
  0.84390527000000004       0.64441694999999999        0.0000000000000000     
  0.63699174999999997       0.14284276000000001        0.0000000000000000     
  0.15620682999999999       0.64648446999999998        0.0000000000000000     
  0.36426062999999997       0.85756310999999996        0.0000000000000000     
  0.63489340999999999       0.40519052000000000        0.0000000000000000     
  0.52518872999999999       0.65957078000000002        0.0000000000000000     
  0.32158959999999998       0.42298103999999997        0.0000000000000000     
  0.58861710000000000       0.31711036999999997        0.0000000000000000     
  0.42078418000000001       0.69497151999999995        0.0000000000000000     
  0.48608786999999998       0.89334152000000000        0.0000000000000000     
   9.7084320000000002E-002  0.50000000000000000        0.0000000000000000     
  0.90291568000000000       0.50000000000000000        0.0000000000000000     
  0.51392453000000005       0.10668648999999999        0.0000000000000000     
  0.59792566999999996       0.73122754000000001        0.0000000000000000     
  0.74510058999999995       0.41124730999999998        0.0000000000000000     
  0.73212551999999997       0.90191560000000004        0.0000000000000000     
   9.7784830000000003E-002  0.26957329000000002        0.0000000000000000     
  0.26711221000000002        9.8671499999999995E-002   0.0000000000000000     
  0.90191560000000004       0.26787448000000003        0.0000000000000000     
  0.90118569000000004       0.73039821000000005        0.0000000000000000     
  0.73122947000000005        9.8017859999999998E-002   0.0000000000000000     
   9.8084400000000002E-002  0.73212551999999997        0.0000000000000000     
  0.26957329000000002       0.90221516999999996        0.0000000000000000     
  0.39283522999999998       0.25360379000000000        0.0000000000000000     
  0.74480864000000002       0.60495284999999999        0.0000000000000000     
  0.25505132000000003       0.60593640999999998        0.0000000000000000     
  0.52159297999999998       0.40671636000000000        0.0000000000000000     
  0.40768852000000000       0.47699891000000000        0.0000000000000000     
   9.1467049999999994E-002   9.1876959999999994E-002   0.0000000000000000     
  0.90842484999999995       0.90819225000000003        0.0000000000000000     
  0.90820104999999995        9.1566729999999999E-002   0.0000000000000000     
   9.1807449999999999E-002  0.90843574000000005        0.0000000000000000     
  0.27098960000000000       0.20527094000000001        0.0000000000000000     
  0.73457293999999995       0.79835387000000002        0.0000000000000000     
  0.79817773000000003       0.25713470999999999        0.0000000000000000     
  0.20747797000000001       0.72863946000000002        0.0000000000000000     
  0.20175195000000001       0.27583914999999998        0.0000000000000000     
  0.79603889000000005       0.72159035000000005        0.0000000000000000     
  0.71761666000000002       0.19748431999999999        0.0000000000000000     
  0.28462607000000001       0.80251899999999998        0.0000000000000000     
  0.69134598999999997       0.49261972999999998        0.0000000000000000     
  0.44720578999999999       0.58582935999999997        0.0000000000000000     
  0.24242269999999999       0.37228174000000003        0.0000000000000000     
  0.38265623999999998       0.93072131999999996        0.0000000000000000     
  0.60971754000000000       0.91988369000000003        0.0000000000000000     
   7.9163609999999995E-002  0.60979116000000000        0.0000000000000000     
  0.92010649000000000       0.61081183999999999        0.0000000000000000     
  0.61954008999999999        7.1530830000000004E-002   0.0000000000000000     
  0.91882012999999996       0.38917363999999999        0.0000000000000000     
  0.39086346000000000        8.0652249999999995E-002   0.0000000000000000     
   7.9183480000000001E-002  0.38966213000000000        0.0000000000000000     
  0.59114111999999996       0.49294315000000000        0.0000000000000000     
  0.63337980999999999       0.64485914000000000        0.0000000000000000     
  0.50012352000000004       0.29676539000000002        0.0000000000000000     
  0.82552601000000003       0.92753492000000004        0.0000000000000000     
  0.92774772999999999       0.82498556999999995        0.0000000000000000     
   7.1970870000000006E-002  0.17510291000000000        0.0000000000000000     
  0.17422821999999999        7.2635640000000001E-002   0.0000000000000000     
  0.82510813000000005        7.2134840000000006E-002   0.0000000000000000     
  0.92754665000000003       0.17446275999999999        0.0000000000000000     
  0.17501022999999999       0.92789951999999998        0.0000000000000000     
   7.2464680000000004E-002  0.82554053000000005        0.0000000000000000     
  0.30731587999999999       0.50885354999999999        0.0000000000000000     
  0.59033407999999998       0.22171178999999999        0.0000000000000000     
  0.40109191999999999       0.78725542000000004        0.0000000000000000     
  0.35420917000000002       0.63754104000000000        0.0000000000000000     
  0.15983976999999999       0.56665573000000002        0.0000000000000000     
  0.84108459999999996       0.56757886999999996        0.0000000000000000     
  0.83902096000000004       0.43344338999999998        0.0000000000000000     
  0.43230028999999998       0.16004268999999999        0.0000000000000000     
  0.57536027999999995       0.83041363999999995        0.0000000000000000     
  0.15771898000000001       0.42747892999999998        0.0000000000000000     
  0.34021692999999997       0.34221559000000001        0.0000000000000000     
  0.56002271999999997       0.57501117999999996        0.0000000000000000     
  0.65344329000000001       0.78147597999999996        0.0000000000000000     
   0.0000000000000000        0.0000000000000000        0.0000000000000000     
   1.0000000000000000        0.0000000000000000        0.0000000000000000     
   1.0000000000000000        1.0000000000000000        0.0000000000000000     
   0.0000000000000000        1.0000000000000000        0.0000000000000000     
  0.11111111000000000        0.0000000000000000        0.0000000000000000     
  0.22222222000000000        0.0000000000000000        0.0000000000000000     
  0.33333332999999998        0.0000000000000000        0.0000000000000000     
  0.44444444000000000        0.0000000000000000        0.0000000000000000     
  0.55555555999999995        0.0000000000000000        0.0000000000000000     
  0.66666667000000002        0.0000000000000000        0.0000000000000000     
  0.77777777999999997        0.0000000000000000        0.0000000000000000     
  0.88888889000000004        0.0000000000000000        0.0000000000000000     
   1.0000000000000000       0.11111111000000000        0.0000000000000000     
   1.0000000000000000       0.22222222000000000        0.0000000000000000     
   1.0000000000000000       0.33333332999999998        0.0000000000000000     
   1.0000000000000000       0.44444444000000000        0.0000000000000000     
   1.0000000000000000       0.55555555999999995        0.0000000000000000     
   1.0000000000000000       0.66666667000000002        0.0000000000000000     
   1.0000000000000000       0.77777777999999997        0.0000000000000000     
   1.0000000000000000       0.88888889000000004        0.0000000000000000     
  0.88888889000000004        1.0000000000000000        0.0000000000000000     
  0.77777777999999997        1.0000000000000000        0.0000000000000000     
  0.66666667000000002        1.0000000000000000        0.0000000000000000     
  0.55555555999999995        1.0000000000000000        0.0000000000000000     
  0.44444444000000000        1.0000000000000000        0.0000000000000000     
  0.33333332999999998        1.0000000000000000        0.0000000000000000     
  0.22222222000000000        1.0000000000000000        0.0000000000000000     
  0.11111111000000000        1.0000000000000000        0.0000000000000000     
   0.0000000000000000       0.11111111000000000        0.0000000000000000     
   0.0000000000000000       0.22222222000000000        0.0000000000000000     
[...]
 CELL_DATA         354
 SCALARS E float
 LOOKUP_TABLE default
    0.70345877666827583141E+00
    0.69679113449258078816E+00
    0.64620826308636836188E+00
    0.59147505348916817880E+00
    0.73971049476828532043E+00
    0.73022712770523434678E+00
    0.68993757444955194913E+00
    0.71468223747518588862E+00
    0.68754287489615240059E+00
    0.67355562711479088911E+00
    0.61353154628952533134E+00
    0.63916561943380723054E+00
    0.61130654757745728212E+00
    0.60633442362907841172E+00
    0.62803779586925190248E+00
    0.61831540224810355166E+00
    0.63637598359535563208E+00
    0.67214958287785997459E+00
    0.72178610050032299128E+00
    0.69913521832483305207E+00
    0.70678005706067825731E+00
    0.70129803222488418246E+00
    0.67297457501178303829E+00
    0.68686434703705889770E+00
    0.66233051937906584072E+00
    0.67203276305567882787E+00
    0.69601686142101903965E+00
    0.68837001739653247423E+00
    0.69589745893835108781E+00
    0.70884755772385821260E+00
    0.71816085217015601661E+00
    0.71944424200258305646E+00
    0.70450720560623603106E+00
    0.70351880486354478883E+00
    0.69005111757391168759E+00
    0.69880484743010984339E+00
    0.66402418995523704304E+00
    0.67194716523431852195E+00
    0.67830871516539470445E+00
    0.67442859688696121800E+00
    0.68035519470637872974E+00
    0.68491954578533398301E+00
    0.68143746337788901890E+00
    0.68514723604202998342E+00
    0.67928557165901071180E+00
    0.67483842123744064434E+00
    0.66444473082701105415E+00
    0.66975035893095435924E+00
    0.65306449919340270327E+00
    0.64268974714538673609E+00
    0.62106766927904244469E+00
    0.63344176445390643071E+00
    0.71123725520100500308E+00
    0.71532990885426017691E+00
    0.70604050979941634925E+00
    0.70960444229505115210E+00
    0.70209713507535598254E+00
    0.70646302295897611678E+00
    0.71005629189379471100E+00
    0.71124799983227082745E+00
    0.70335439552994771795E+00
    0.70275838876020912949E+00
    0.68612330500843599079E+00
    0.69845889682436468338E+00
    0.66944425392468454028E+00
    0.65865450610592757297E+00
    0.63182751648506185749E+00
    0.64621631550072788919E+00
    0.62653226180886845142E+00
    0.67118403524832470630E+00
    0.71544122214165328799E+00
    0.64290560581964451004E+00
    0.70139286236042852618E+00
    0.64821282395878698779E+00
    0.69175030710909068965E+00
    0.73051942801839808705E+00
    0.73252006563563454300E+00
    0.69213331497059260577E+00
    0.72654397590276076357E+00
    0.71705707987918521074E+00
    0.74490673410259500287E+00
    0.73365669530073962523E+00
    0.73504603941469004447E+00
    0.72203696849265652791E+00
    0.65505702503900076206E+00
    0.70291198843731206303E+00
    0.79774326879877799357E+00
    0.65717794825479369791E+00
    0.65325687109323093971E+00
    0.66314967337298225125E+00
    0.73146265385035913464E+00
    0.76595642682959086400E+00
    0.75936838714170118436E+00
    0.75174256996310995227E+00
    0.74703629681611227742E+00
    0.75343038458020572534E+00
    0.76764588396951194404E+00
    0.72695065200493991231E+00
    0.66688199665626035628E+00
    0.70734368422865745440E+00
    0.69829337622512721584E+00
    0.69524229448227037320E+00
    0.70626459297862675957E+00
    0.67000027401450434894E+00
    0.67396219260722634026E+00
    0.68209345697070589143E+00
    0.67392206797787723715E+00
    0.64284514390285441010E+00
    0.74243035134192181257E+00
    0.73899443510750373321E+00
    0.76365763736662350958E+00
    0.74016619230843017085E+00
    0.75564210575998003172E+00
    0.74542808529446569210E+00
    0.74213040752680692336E+00
    0.74891318387826144587E+00
    0.74683929424892603333E+00
    0.72440155109135007105E+00
    0.74806541074177512751E+00
    0.72551935475639517392E+00
    0.72919539781304809622E+00
    0.73389299678675268268E+00
    0.73909821776795536774E+00
    0.71683208231074946326E+00
    0.75761420996372252912E+00
    0.75539970121818955651E+00
    0.70795496564473570089E+00
    0.72027857930408833997E+00
    0.73637585308640740589E+00
    0.72982070598460724309E+00
    0.73583626844755634089E+00
    0.74789965908900601921E+00
    0.75041608260467929092E+00
    0.72489471574389707786E+00
    0.72362034901867600123E+00
    0.70530392408708841856E+00
    0.68111262396745120284E+00
    0.70369632905762458108E+00
    0.70557447906205661425E+00
    0.69117021143417889384E+00
    0.67673591327720783450E+00
    0.68355169703477203225E+00
    0.71270439142797692433E+00
    0.70501691810059674559E+00
    0.67979727460862293675E+00
    0.74099141781485711178E+00
    0.73652925497677435018E+00
    0.67883251988419779366E+00
    0.68380392804293665954E+00
    0.66237521193226978067E+00
    0.64643787502769955999E+00
    0.67862531598221242923E+00
    0.66898695142325825813E+00
    0.67657105911230019935E+00
    0.64294064437297926418E+00
    0.74001501218668042092E+00
    0.68474282634423722094E+00
    0.65556119732012108070E+00
    0.73268621391365162943E+00
    0.70250485987772148810E+00
    0.76513028252988690703E+00
    0.66910926647233459619E+00
    0.69826094696455054400E+00
    0.72073462226140971865E+00
    0.73620953752635387435E+00
    0.76109755193439532217E+00
    0.75828532597390574388E+00
    0.76406250142470855113E+00
    0.74409246495602787697E+00
    0.74859318468378432954E+00
    0.74590011624674135149E+00
    0.67187140930300104369E+00
    0.70866491697195421740E+00
    0.73034222621834843370E+00
    0.67381000203710472718E+00
    0.76568443990893642059E+00
    0.73407358285059665093E+00
    0.71595243246880924115E+00
    0.76961502332660414183E+00
    0.73871819199364674446E+00
    0.64803193867344621726E+00
    0.71968728976150386778E+00
    0.67527707858370833449E+00
    0.72702103905206238998E+00
    0.67874005017244321003E+00
    0.77030818583342330896E+00
    0.71969960349474937367E+00
    0.74244559982815094834E+00
    0.76643267184653074420E+00
    0.72799164964355767005E+00
    0.64784686462323215483E+00
    0.68746341150347223259E+00
    0.63217882177130857446E+00
    0.64870859074814557488E+00
    0.65520675640106396109E+00
    0.75623262049820816344E+00
    0.73240704908805753792E+00
    0.73837508817357300206E+00
    0.76182896579034931062E+00
    0.74130799557792315113E+00
    0.72091832782653963996E+00
    0.73828676132905157736E+00
    0.72883843418296534455E+00
    0.72105019674201398239E+00
    0.73341351590288306195E+00
    0.75605183868402170422E+00
    0.64245909676038548408E+00
    0.67893811259480674192E+00
    0.65147287127597108825E+00
    0.65002523652742216775E+00
    0.73772679272367980285E+00
    0.72944660283799933609E+00
    0.71668530870580282599E+00
    0.72914730384926251805E+00
    0.71877642913266925895E+00
    0.67117007044348520051E+00
    0.73592398425796079486E+00
    0.70724280586304777430E+00
    0.69633536194423140131E+00
    0.76633414592925819253E+00
    0.80402914743991749091E+00
    0.81856602894317176400E+00
    0.71961188254908359241E+00
    0.74646104857719131065E+00
    0.73914931956971574589E+00
    0.70391920628156168238E+00
    0.74191102711496947908E+00
    0.75997609605608151817E+00
    0.75793116264967563822E+00
    0.74981568644301743731E+00
    0.76229551593959299360E+00
    0.74826531936583862148E+00
    0.77030507705769368787E+00
    0.74560791537587678413E+00
    0.74510669903818427251E+00
    0.73177121010153556302E+00
    0.75145524894496418256E+00
    0.62473480759172028698E+00
    0.69464043148076592971E+00
    0.70540076537402740531E+00
    0.68455826947134612581E+00
    0.73411210543527982697E+00
    0.74519986223548595472E+00
    0.73055698047223804892E+00
    0.65718017984070753457E+00
    0.64686685518603104228E+00
    0.75427046966748045875E+00
    0.74791912406591043450E+00
    0.70776568922624771840E+00
    0.75141266339608547842E+00
    0.76070743624971304264E+00
    0.73063953212612242627E+00
    0.73894945773739917350E+00
    0.74949349178027691032E+00
    0.71267922087395862984E+00
    0.72031172770530860205E+00
    0.72210400649346795365E+00
    0.69552794781460314244E+00
    0.76017225650857433994E+00
    0.77012720677300672278E+00
    0.71778586515484499309E+00
    0.68677850355235015023E+00
    0.70398489955852316946E+00
    0.66592128220389124049E+00
    0.74372818745854296640E+00
    0.74877065699062594906E+00
    0.68661295351306239620E+00
    0.73285901075266668414E+00
    0.72413970358502210978E+00
    0.67757267000564025405E+00
    0.66586168879481943961E+00
    0.69467023985314779733E+00
    0.65303872499493009762E+00
    0.63565296101842183596E+00
    0.72033466592966532982E+00
    0.72530717016246737394E+00
    0.73325364719339480857E+00
    0.70419993130323355057E+00
    0.73792657267561323486E+00
    0.77075937204011313320E+00
    0.76295335275368691974E+00
    0.72945234638840272812E+00
    0.66592424187184429130E+00
    0.62831360525912083315E+00
    0.72032349005632201333E+00
    0.69103629128361865330E+00
    0.67279782327711445955E+00
    0.74325034703229220234E+00
    0.74434587717331934797E+00
    0.70658212264841968597E+00
    0.71763378454943216322E+00
    0.72252333513070565729E+00
    0.72476675805929091645E+00
    0.66715260186938785125E+00
    0.67195149473921378380E+00
    0.73830121475027443712E+00
    0.75245169796151722963E+00
    0.75443388154314605654E+00
    0.66607057800300828454E+00
    0.74946016627185230163E+00
    0.72620289515823277515E+00
    0.64168396151992557197E+00
    0.73134495523835085784E+00
    0.65218941223827264775E+00
    0.70943798985669703772E+00
    0.71690096747866949300E+00
    0.70219466001077557316E+00
    0.72027859063548105301E+00
    0.75711500273655485405E+00
    0.75544820661273970330E+00
    0.74900399540992412817E+00
    0.73437652130893793512E+00
    0.70608496936872089389E+00
    0.76563459005946554736E+00
    0.67458188878040525882E+00
    0.73037664799864798759E+00
    0.73321532609364192812E+00
    0.74751263868650430489E+00
    0.71872370689046582992E+00
    0.68466502290391739738E+00
    0.71179444936966751456E+00
    0.69231221986180813133E+00
    0.65183967689020450020E+00
    0.62233218463753159355E+00
    0.57337508961923566719E+00
    0.58490703451080139352E+00
    0.71844359343361330339E+00
    0.67640954183570611846E+00
    0.63962592558726749647E+00
    0.60474960893718399113E+00
    0.59141613960892658319E+00
    0.61599720340421826315E+00
    0.67844026774074717157E+00
    0.67882325795118358958E+00
    0.65755567145620841263E+00
    0.66354559917114541712E+00
    0.68111492513027838136E+00
    0.69620268476692714898E+00
    0.69604435387569640881E+00
    0.68889381596805610020E+00
    0.64470255468481885153E+00
    0.65059801807568895526E+00
    0.65549085659101036239E+00
    0.65272963362112568220E+00
    0.64627215683968963766E+00
    0.62993690311509442648E+00
    0.61057775484176268765E+00
    0.69074650512665924929E+00
    0.68496995260993565058E+00
    0.68538181831834110724E+00
    0.68440427641747070275E+00
    0.67637134539626841967E+00
    0.65459845204941657926E+00
    0.63084617268526033129E+00
