# vtk DataFile Version 3.0
LAPLACIEN  2D
ASCII
DATASET UNSTRUCTURED_GRID
 POINTS         391  float
  0.50371505999999999       0.50367786999999997        0.0000000000000000     
  0.29013556000000001       0.29014535000000002        0.0000000000000000     
  0.70165584999999997       0.71206597999999999        0.0000000000000000     
  0.70304188999999995       0.30176619999999998        0.0000000000000000     
  0.30920671999999999       0.71149227999999998        0.0000000000000000     
  0.79044983999999996       0.49884783999999999        0.0000000000000000     
  0.49102621000000002       0.20968644000000000        0.0000000000000000     
  0.49912957000000002       0.77208717000000004        0.0000000000000000     
  0.21724072999999999       0.48989389000000000        0.0000000000000000     
  0.83255933999999998       0.83046598000000005        0.0000000000000000     
  0.16646774000000000       0.17015694000000001        0.0000000000000000     
  0.83054514999999995       0.16736480000000001        0.0000000000000000     
  0.16953130999999999       0.83265739000000005        0.0000000000000000     
  0.42166445000000002       0.36345201999999999        0.0000000000000000     
  0.64462200999999997       0.56347807999999999        0.0000000000000000     
  0.35324633999999999       0.56311191000000005        0.0000000000000000     
  0.65456411000000003       0.84856860999999995        0.0000000000000000     
  0.35141477999999998       0.15563974000000000        0.0000000000000000     
  0.15290967000000000       0.35206625000000003        0.0000000000000000     
  0.82942241000000005       0.34936866000000000        0.0000000000000000     
  0.84390527000000004       0.64441694999999999        0.0000000000000000     
  0.63699174999999997       0.14284276000000001        0.0000000000000000     
  0.15620682999999999       0.64648446999999998        0.0000000000000000     
  0.36426062999999997       0.85756310999999996        0.0000000000000000     
  0.63489340999999999       0.40519052000000000        0.0000000000000000     
  0.52518872999999999       0.65957078000000002        0.0000000000000000     
  0.32158959999999998       0.42298103999999997        0.0000000000000000     
  0.58861710000000000       0.31711036999999997        0.0000000000000000     
  0.42078418000000001       0.69497151999999995        0.0000000000000000     
  0.48608786999999998       0.89334152000000000        0.0000000000000000     
   9.7084320000000002E-002  0.50000000000000000        0.0000000000000000     
  0.90291568000000000       0.50000000000000000        0.0000000000000000     
  0.51392453000000005       0.10668648999999999        0.0000000000000000     
  0.59792566999999996       0.73122754000000001        0.0000000000000000     
  0.74510058999999995       0.41124730999999998        0.0000000000000000     
  0.73212551999999997       0.90191560000000004        0.0000000000000000     
   9.7784830000000003E-002  0.26957329000000002        0.0000000000000000     
  0.26711221000000002        9.8671499999999995E-002   0.0000000000000000     
  0.90191560000000004       0.26787448000000003        0.0000000000000000     
  0.90118569000000004       0.73039821000000005        0.0000000000000000     
  0.73122947000000005        9.8017859999999998E-002   0.0000000000000000     
   9.8084400000000002E-002  0.73212551999999997        0.0000000000000000     
  0.26957329000000002       0.90221516999999996        0.0000000000000000     
  0.39283522999999998       0.25360379000000000        0.0000000000000000     
  0.74480864000000002       0.60495284999999999        0.0000000000000000     
  0.25505132000000003       0.60593640999999998        0.0000000000000000     
  0.52159297999999998       0.40671636000000000        0.0000000000000000     
  0.40768852000000000       0.47699891000000000        0.0000000000000000     
   9.1467049999999994E-002   9.1876959999999994E-002   0.0000000000000000     
  0.90842484999999995       0.90819225000000003        0.0000000000000000     
  0.90820104999999995        9.1566729999999999E-002   0.0000000000000000     
   9.1807449999999999E-002  0.90843574000000005        0.0000000000000000     
  0.27098960000000000       0.20527094000000001        0.0000000000000000     
  0.73457293999999995       0.79835387000000002        0.0000000000000000     
  0.79817773000000003       0.25713470999999999        0.0000000000000000     
  0.20747797000000001       0.72863946000000002        0.0000000000000000     
  0.20175195000000001       0.27583914999999998        0.0000000000000000     
  0.79603889000000005       0.72159035000000005        0.0000000000000000     
  0.71761666000000002       0.19748431999999999        0.0000000000000000     
  0.28462607000000001       0.80251899999999998        0.0000000000000000     
  0.69134598999999997       0.49261972999999998        0.0000000000000000     
  0.44720578999999999       0.58582935999999997        0.0000000000000000     
  0.24242269999999999       0.37228174000000003        0.0000000000000000     
  0.38265623999999998       0.93072131999999996        0.0000000000000000     
  0.60971754000000000       0.91988369000000003        0.0000000000000000     
   7.9163609999999995E-002  0.60979116000000000        0.0000000000000000     
  0.92010649000000000       0.61081183999999999        0.0000000000000000     
  0.61954008999999999        7.1530830000000004E-002   0.0000000000000000     
  0.91882012999999996       0.38917363999999999        0.0000000000000000     
  0.39086346000000000        8.0652249999999995E-002   0.0000000000000000     
   7.9183480000000001E-002  0.38966213000000000        0.0000000000000000     
  0.59114111999999996       0.49294315000000000        0.0000000000000000     
  0.63337980999999999       0.64485914000000000        0.0000000000000000     
  0.50012352000000004       0.29676539000000002        0.0000000000000000     
  0.82552601000000003       0.92753492000000004        0.0000000000000000     
  0.92774772999999999       0.82498556999999995        0.0000000000000000     
   7.1970870000000006E-002  0.17510291000000000        0.0000000000000000     
  0.17422821999999999        7.2635640000000001E-002   0.0000000000000000     
  0.82510813000000005        7.2134840000000006E-002   0.0000000000000000     
  0.92754665000000003       0.17446275999999999        0.0000000000000000     
  0.17501022999999999       0.92789951999999998        0.0000000000000000     
   7.2464680000000004E-002  0.82554053000000005        0.0000000000000000     
  0.30731587999999999       0.50885354999999999        0.0000000000000000     
  0.59033407999999998       0.22171178999999999        0.0000000000000000     
  0.40109191999999999       0.78725542000000004        0.0000000000000000     
  0.35420917000000002       0.63754104000000000        0.0000000000000000     
  0.15983976999999999       0.56665573000000002        0.0000000000000000     
  0.84108459999999996       0.56757886999999996        0.0000000000000000     
  0.83902096000000004       0.43344338999999998        0.0000000000000000     
  0.43230028999999998       0.16004268999999999        0.0000000000000000     
  0.57536027999999995       0.83041363999999995        0.0000000000000000     
  0.15771898000000001       0.42747892999999998        0.0000000000000000     
  0.34021692999999997       0.34221559000000001        0.0000000000000000     
  0.56002271999999997       0.57501117999999996        0.0000000000000000     
  0.65344329000000001       0.78147597999999996        0.0000000000000000     
   0.0000000000000000        0.0000000000000000        0.0000000000000000     
   1.0000000000000000        0.0000000000000000        0.0000000000000000     
   1.0000000000000000        1.0000000000000000        0.0000000000000000     
   0.0000000000000000        1.0000000000000000        0.0000000000000000     
  0.11111111000000000        0.0000000000000000        0.0000000000000000     
  0.22222222000000000        0.0000000000000000        0.0000000000000000     
  0.33333332999999998        0.0000000000000000        0.0000000000000000     
  0.44444444000000000        0.0000000000000000        0.0000000000000000     
  0.55555555999999995        0.0000000000000000        0.0000000000000000     
  0.66666667000000002        0.0000000000000000        0.0000000000000000     
  0.77777777999999997        0.0000000000000000        0.0000000000000000     
  0.88888889000000004        0.0000000000000000        0.0000000000000000     
   1.0000000000000000       0.11111111000000000        0.0000000000000000     
   1.0000000000000000       0.22222222000000000        0.0000000000000000     
   1.0000000000000000       0.33333332999999998        0.0000000000000000     
   1.0000000000000000       0.44444444000000000        0.0000000000000000     
   1.0000000000000000       0.55555555999999995        0.0000000000000000     
   1.0000000000000000       0.66666667000000002        0.0000000000000000     
   1.0000000000000000       0.77777777999999997        0.0000000000000000     
   1.0000000000000000       0.88888889000000004        0.0000000000000000     
  0.88888889000000004        1.0000000000000000        0.0000000000000000     
  0.77777777999999997        1.0000000000000000        0.0000000000000000     
  0.66666667000000002        1.0000000000000000        0.0000000000000000     
  0.55555555999999995        1.0000000000000000        0.0000000000000000     
  0.44444444000000000        1.0000000000000000        0.0000000000000000     
  0.33333332999999998        1.0000000000000000        0.0000000000000000     
  0.22222222000000000        1.0000000000000000        0.0000000000000000     
  0.11111111000000000        1.0000000000000000        0.0000000000000000     
   0.0000000000000000       0.11111111000000000        0.0000000000000000     
   0.0000000000000000       0.22222222000000000        0.0000000000000000     
[...]
 CELL_DATA         354
 SCALARS E float
 LOOKUP_TABLE default
    0.70255007304083672004E+00
    0.69553423802440816903E+00
    0.64547325049478621040E+00
    0.59079000857368035859E+00
    0.73947373699926588486E+00
    0.72969277661568443527E+00
    0.68863875580068445448E+00
    0.71372959837656591020E+00
    0.68662672451932860174E+00
    0.67252259777426770526E+00
    0.61184705519595927736E+00
    0.63765555234187498712E+00
    0.60949114797351777728E+00
    0.60426920514856807820E+00
    0.62660120803231644793E+00
    0.61670305767295441335E+00
    0.63460550606477050817E+00
    0.67080528263034866487E+00
    0.72126837508800356602E+00
    0.69823244361093739219E+00
    0.70577375529290820033E+00
    0.70021979010469270754E+00
    0.67139530216630805004E+00
    0.68550901440653699837E+00
    0.66070813880414580588E+00
    0.67057072295889119662E+00
    0.69497183673526841119E+00
    0.68719189134255120877E+00
    0.69471346307237491491E+00
    0.70783450766062705473E+00
    0.71751707615669302331E+00
    0.71873330647656918924E+00
    0.70360123137455687914E+00
    0.70281805681649844875E+00
    0.68983254609644517608E+00
    0.69841764782936621714E+00
    0.66340950845015433934E+00
    0.67135810338495049976E+00
    0.67741098390432474829E+00
    0.67366455666116087375E+00
    0.67951011210071499136E+00
    0.68415814883183334594E+00
    0.68047112874306825425E+00
    0.68431836038654347831E+00
    0.67823499201247050561E+00
    0.67388127624507787594E+00
    0.66366205137234124400E+00
    0.66894735116962067423E+00
    0.65221840024250621326E+00
    0.64200043805098472305E+00
    0.62061425990963181576E+00
    0.63295811541086122176E+00
    0.71037859532586822287E+00
    0.71452828611711682871E+00
    0.70491314467910715091E+00
    0.70860060245181188954E+00
    0.70102542729052019777E+00
    0.70551207536701465717E+00
    0.70921668509457413965E+00
    0.71039680497992285790E+00
    0.70242209048531578652E+00
    0.70194311067140147120E+00
    0.68542383340267432068E+00
    0.69779726767127248088E+00
    0.66860670789846676776E+00
    0.65800846274041879802E+00
    0.63151442977176097671E+00
    0.64580778530282245686E+00
    0.62673302430697797050E+00
    0.67144201499841882352E+00
    0.71604914708895361919E+00
    0.64288144260120272389E+00
    0.70192321136821933525E+00
    0.64757733915149096049E+00
    0.69143233358894029550E+00
    0.73085462999992822919E+00
    0.73306232546921357152E+00
    0.69222433508621383780E+00
    0.72617420428578127733E+00
    0.71678462304445811348E+00
    0.74476010802947112399E+00
    0.73332482923842046141E+00
    0.73516600932198516993E+00
    0.72147661770910753720E+00
    0.65565471426041710412E+00
    0.70609971427584028447E+00
    0.80130024350716611004E+00
    0.65903609462636225658E+00
    0.65407779893521245107E+00
    0.66604693378069224075E+00
    0.73493904412852184560E+00
    0.76634291996716674689E+00
    0.75969183581042276643E+00
    0.75188195992436113180E+00
    0.74708383296656477590E+00
    0.75358283078183263548E+00
    0.76811250201743219712E+00
    0.72721744963300682940E+00
    0.66672518588537021955E+00
    0.70744502377068474441E+00
    0.69870482797701283229E+00
    0.69496469994223131206E+00
    0.70636917265722998227E+00
    0.67147795452997693921E+00
    0.67555332422285208072E+00
    0.68581506809720793605E+00
    0.67756548746478917344E+00
    0.64385582534605501071E+00
    0.74246697841485898017E+00
    0.73886119450244658324E+00
    0.76399077833874562415E+00
    0.74001603330061982433E+00
    0.75573948139800473101E+00
    0.74535864644538807333E+00
    0.74258442821113068710E+00
    0.74891654807803043070E+00
    0.74705252883548056708E+00
    0.72438425351689594844E+00
    0.74846778346022913020E+00
    0.72519616523083185733E+00
    0.72898876314932659071E+00
    0.73386081167844574580E+00
    0.73900138898270273380E+00
    0.71660116470286305823E+00
    0.75786491811833656129E+00
    0.75558287227553755372E+00
    0.70755377340590308588E+00
    0.71995185367833813839E+00
    0.73619765465946285232E+00
    0.72973306688584360646E+00
    0.73546863992715583169E+00
    0.74830118368748543833E+00
    0.75071999529184707534E+00
    0.72437462587950052217E+00
    0.72314181338942451482E+00
    0.70548800634897890216E+00
    0.68117915646316307132E+00
    0.70330720452338257864E+00
    0.70617347927299878307E+00
    0.69180534344335986585E+00
    0.67623905406906104076E+00
    0.68306473333788453317E+00
    0.71256387665855758229E+00
    0.70482680088160187815E+00
    0.67957326364347192538E+00
    0.74121444808299619122E+00
    0.73669833343693980066E+00
    0.67843679412820145913E+00
    0.68342286203720514770E+00
    0.66250289107432358549E+00
    0.64719301986212052213E+00
    0.68103466863822048616E+00
    0.66965982832092751931E+00
    0.67930233744571100196E+00
    0.64298426637133943018E+00
    0.74080017188350644197E+00
    0.68499939457898317841E+00
    0.65541673806102185296E+00
    0.73331845809102380596E+00
    0.70281652410840189660E+00
    0.76577287641949354224E+00
    0.66838878810160085031E+00
    0.69792847274274283365E+00
    0.72059717629853969889E+00
    0.73634087942309078834E+00
    0.76152208209838256892E+00
    0.75854070520919969489E+00
    0.76451948170351946565E+00
    0.74405069512538313248E+00
    0.74859322521059346034E+00
    0.74659859314956211751E+00
    0.67203907113375804805E+00
    0.70891927502852802867E+00
    0.73111007206660894031E+00
    0.67408018813231374011E+00
    0.76602008782735120374E+00
    0.73403438981242219441E+00
    0.71555179660931789165E+00
    0.77001601350350701303E+00
    0.73852087889100115348E+00
    0.64794327289857422958E+00
    0.72018760462782804854E+00
    0.67551974855385599206E+00
    0.72751687656028529716E+00
    0.67854379565792943829E+00
    0.77073286339178881388E+00
    0.71927653461581775307E+00
    0.74230357989161965815E+00
    0.76683751340475148073E+00
    0.72773533647891097687E+00
    0.64870940918568686939E+00
    0.68810056941839603528E+00
    0.63272600356099228947E+00
    0.64914344759598885393E+00
    0.65671148497075004791E+00
    0.75658044272589808354E+00
    0.73199847161987496857E+00
    0.73818092765594789384E+00
    0.76219273893869721181E+00
    0.74109315797040209439E+00
    0.72062782143729509077E+00
    0.73846871295876548302E+00
    0.72856208952591328121E+00
    0.72086066956525596261E+00
    0.73322233378259971115E+00
    0.76011292539725117123E+00
    0.64407717388402696557E+00
    0.68163531609697591840E+00
    0.65223476071790298381E+00
    0.65150203062232736606E+00
    0.73777340496834931116E+00
    0.72934614428112998219E+00
    0.71678679898576003193E+00
    0.72934345775090037023E+00
    0.71912197566523872183E+00
    0.67104153691583745545E+00
    0.73648743305864550202E+00
    0.70719968151511081178E+00
    0.69662957849704598701E+00
    0.77034631064915126686E+00
    0.80757408132782537713E+00
    0.82153808727776556076E+00
    0.71938402891188402144E+00
    0.74645297336480875838E+00
    0.73905740779415707298E+00
    0.70334981559541209784E+00
    0.74209429162594586771E+00
    0.76032450656370154096E+00
    0.75820949404356619006E+00
    0.74989490138216585713E+00
    0.76262854919788236607E+00
    0.74821547199650462190E+00
    0.77071780188669147815E+00
    0.74566951245956025751E+00
    0.74556762715342439485E+00
    0.73184159158749817475E+00
    0.75215745702588443500E+00
    0.62456115614911422718E+00
    0.69508651770123930369E+00
    0.70762023702344190035E+00
    0.68547247089882101800E+00
    0.73415362289145924546E+00
    0.74510305201382931450E+00
    0.73017926136314836860E+00
    0.65745886681388754358E+00
    0.64626425429043743431E+00
    0.75455039341308305367E+00
    0.74829508299302593954E+00
    0.70743750400291760538E+00
    0.75161785732340802291E+00
    0.76097553226261449577E+00
    0.73019490945102494273E+00
    0.73936446394966226503E+00
    0.75028665629255519853E+00
    0.71201981815888126803E+00
    0.72093360450721810651E+00
    0.72228269336754791219E+00
    0.69512486452208144261E+00
    0.76039933947658222557E+00
    0.77061636709016467783E+00
    0.71727095646726035660E+00
    0.68746201713141563694E+00
    0.70471242690210122994E+00
    0.66528121153738029037E+00
    0.74390454428186481017E+00
    0.74915805212148645076E+00
    0.68617071711056221162E+00
    0.73294522418792085183E+00
    0.72432357728160412513E+00
    0.67715138135520835938E+00
    0.66550010728220376777E+00
    0.69684358583995575920E+00
    0.65365635512497000104E+00
    0.63540907268300594879E+00
    0.71987406576656187696E+00
    0.72599480869893884272E+00
    0.73368164893388010395E+00
    0.70378155572137590656E+00
    0.73775025354775936037E+00
    0.77148190889339784970E+00
    0.76347775286224894842E+00
    0.72911846067174490571E+00
    0.66686223294161117714E+00
    0.62936125438753487416E+00
    0.72379302301110592932E+00
    0.69103986559887387031E+00
    0.67211018730775418106E+00
    0.74304690381069582461E+00
    0.74414678395973665737E+00
    0.70644755328110819814E+00
    0.71755845086611103056E+00
    0.72235596094085707808E+00
    0.72452200731761073893E+00
    0.66705704346111516223E+00
    0.67185897087127299798E+00
    0.73862000831182916816E+00
    0.75249505646498993094E+00
    0.75447543103259584463E+00
    0.66688051260976755064E+00
    0.74962787096740002291E+00
    0.72632163795146120755E+00
    0.64454627405528797102E+00
    0.73104153284976691740E+00
    0.65240491407839329430E+00
    0.70901042430632355007E+00
    0.71740735081130002637E+00
    0.70155083935506878934E+00
    0.72076382499183511143E+00
    0.75743306812630695202E+00
    0.75559692138502221326E+00
    0.74915428443692377858E+00
    0.73487039820038624338E+00
    0.70674487703593358301E+00
    0.76599255534225840769E+00
    0.67471964819979302064E+00
    0.73089643486022926044E+00
    0.73698591851815709042E+00
    0.74745256117585601174E+00
    0.71824734683959801096E+00
    0.68345501350366300031E+00
    0.71086760587747321871E+00
    0.69082753663840790193E+00
    0.65140053008840814730E+00
    0.62141504159296945264E+00
    0.57266177585639532754E+00
    0.58435807062194400352E+00
    0.71764275892721629546E+00
    0.67480561646131642650E+00
    0.63743937164005903817E+00
    0.60213516213478912587E+00
    0.58850499231672370737E+00
    0.61349206424461777409E+00
    0.67696316087296826147E+00
    0.67708123837228073594E+00
    0.65534381141747743982E+00
    0.66144866137739177780E+00
    0.67939861482855179453E+00
    0.69482110757503645626E+00
    0.69497670962862412303E+00
    0.68828504991466588070E+00
    0.64372243966027009598E+00
    0.64934998092542661752E+00
    0.65421052445604965797E+00
    0.65140270743852279889E+00
    0.64506888876547407996E+00
    0.62881793734772939430E+00
    0.60977277587903122580E+00
    0.68945806876101034533E+00
    0.68343743642338594668E+00
    0.68390362860701026104E+00
    0.68307255184948811877E+00
    0.67519732689277645044E+00
    0.65354066541310262828E+00
    0.63017473070101370780E+00
