# vtk DataFile Version 3.0
LAPLACIEN  2D
ASCII
DATASET UNSTRUCTURED_GRID
 POINTS         391  float
  0.50371505999999999       0.50367786999999997        0.0000000000000000     
  0.29013556000000001       0.29014535000000002        0.0000000000000000     
  0.70165584999999997       0.71206597999999999        0.0000000000000000     
  0.70304188999999995       0.30176619999999998        0.0000000000000000     
  0.30920671999999999       0.71149227999999998        0.0000000000000000     
  0.79044983999999996       0.49884783999999999        0.0000000000000000     
  0.49102621000000002       0.20968644000000000        0.0000000000000000     
  0.49912957000000002       0.77208717000000004        0.0000000000000000     
  0.21724072999999999       0.48989389000000000        0.0000000000000000     
  0.83255933999999998       0.83046598000000005        0.0000000000000000     
  0.16646774000000000       0.17015694000000001        0.0000000000000000     
  0.83054514999999995       0.16736480000000001        0.0000000000000000     
  0.16953130999999999       0.83265739000000005        0.0000000000000000     
  0.42166445000000002       0.36345201999999999        0.0000000000000000     
  0.64462200999999997       0.56347807999999999        0.0000000000000000     
  0.35324633999999999       0.56311191000000005        0.0000000000000000     
  0.65456411000000003       0.84856860999999995        0.0000000000000000     
  0.35141477999999998       0.15563974000000000        0.0000000000000000     
  0.15290967000000000       0.35206625000000003        0.0000000000000000     
  0.82942241000000005       0.34936866000000000        0.0000000000000000     
  0.84390527000000004       0.64441694999999999        0.0000000000000000     
  0.63699174999999997       0.14284276000000001        0.0000000000000000     
  0.15620682999999999       0.64648446999999998        0.0000000000000000     
  0.36426062999999997       0.85756310999999996        0.0000000000000000     
  0.63489340999999999       0.40519052000000000        0.0000000000000000     
  0.52518872999999999       0.65957078000000002        0.0000000000000000     
  0.32158959999999998       0.42298103999999997        0.0000000000000000     
  0.58861710000000000       0.31711036999999997        0.0000000000000000     
  0.42078418000000001       0.69497151999999995        0.0000000000000000     
  0.48608786999999998       0.89334152000000000        0.0000000000000000     
   9.7084320000000002E-002  0.50000000000000000        0.0000000000000000     
  0.90291568000000000       0.50000000000000000        0.0000000000000000     
  0.51392453000000005       0.10668648999999999        0.0000000000000000     
  0.59792566999999996       0.73122754000000001        0.0000000000000000     
  0.74510058999999995       0.41124730999999998        0.0000000000000000     
  0.73212551999999997       0.90191560000000004        0.0000000000000000     
   9.7784830000000003E-002  0.26957329000000002        0.0000000000000000     
  0.26711221000000002        9.8671499999999995E-002   0.0000000000000000     
  0.90191560000000004       0.26787448000000003        0.0000000000000000     
  0.90118569000000004       0.73039821000000005        0.0000000000000000     
  0.73122947000000005        9.8017859999999998E-002   0.0000000000000000     
   9.8084400000000002E-002  0.73212551999999997        0.0000000000000000     
  0.26957329000000002       0.90221516999999996        0.0000000000000000     
  0.39283522999999998       0.25360379000000000        0.0000000000000000     
  0.74480864000000002       0.60495284999999999        0.0000000000000000     
  0.25505132000000003       0.60593640999999998        0.0000000000000000     
  0.52159297999999998       0.40671636000000000        0.0000000000000000     
  0.40768852000000000       0.47699891000000000        0.0000000000000000     
   9.1467049999999994E-002   9.1876959999999994E-002   0.0000000000000000     
  0.90842484999999995       0.90819225000000003        0.0000000000000000     
  0.90820104999999995        9.1566729999999999E-002   0.0000000000000000     
   9.1807449999999999E-002  0.90843574000000005        0.0000000000000000     
  0.27098960000000000       0.20527094000000001        0.0000000000000000     
  0.73457293999999995       0.79835387000000002        0.0000000000000000     
  0.79817773000000003       0.25713470999999999        0.0000000000000000     
  0.20747797000000001       0.72863946000000002        0.0000000000000000     
  0.20175195000000001       0.27583914999999998        0.0000000000000000     
  0.79603889000000005       0.72159035000000005        0.0000000000000000     
  0.71761666000000002       0.19748431999999999        0.0000000000000000     
  0.28462607000000001       0.80251899999999998        0.0000000000000000     
  0.69134598999999997       0.49261972999999998        0.0000000000000000     
  0.44720578999999999       0.58582935999999997        0.0000000000000000     
  0.24242269999999999       0.37228174000000003        0.0000000000000000     
  0.38265623999999998       0.93072131999999996        0.0000000000000000     
  0.60971754000000000       0.91988369000000003        0.0000000000000000     
   7.9163609999999995E-002  0.60979116000000000        0.0000000000000000     
  0.92010649000000000       0.61081183999999999        0.0000000000000000     
  0.61954008999999999        7.1530830000000004E-002   0.0000000000000000     
  0.91882012999999996       0.38917363999999999        0.0000000000000000     
  0.39086346000000000        8.0652249999999995E-002   0.0000000000000000     
   7.9183480000000001E-002  0.38966213000000000        0.0000000000000000     
  0.59114111999999996       0.49294315000000000        0.0000000000000000     
  0.63337980999999999       0.64485914000000000        0.0000000000000000     
  0.50012352000000004       0.29676539000000002        0.0000000000000000     
  0.82552601000000003       0.92753492000000004        0.0000000000000000     
  0.92774772999999999       0.82498556999999995        0.0000000000000000     
   7.1970870000000006E-002  0.17510291000000000        0.0000000000000000     
  0.17422821999999999        7.2635640000000001E-002   0.0000000000000000     
  0.82510813000000005        7.2134840000000006E-002   0.0000000000000000     
  0.92754665000000003       0.17446275999999999        0.0000000000000000     
  0.17501022999999999       0.92789951999999998        0.0000000000000000     
   7.2464680000000004E-002  0.82554053000000005        0.0000000000000000     
  0.30731587999999999       0.50885354999999999        0.0000000000000000     
  0.59033407999999998       0.22171178999999999        0.0000000000000000     
  0.40109191999999999       0.78725542000000004        0.0000000000000000     
  0.35420917000000002       0.63754104000000000        0.0000000000000000     
  0.15983976999999999       0.56665573000000002        0.0000000000000000     
  0.84108459999999996       0.56757886999999996        0.0000000000000000     
  0.83902096000000004       0.43344338999999998        0.0000000000000000     
  0.43230028999999998       0.16004268999999999        0.0000000000000000     
  0.57536027999999995       0.83041363999999995        0.0000000000000000     
  0.15771898000000001       0.42747892999999998        0.0000000000000000     
  0.34021692999999997       0.34221559000000001        0.0000000000000000     
  0.56002271999999997       0.57501117999999996        0.0000000000000000     
  0.65344329000000001       0.78147597999999996        0.0000000000000000     
   0.0000000000000000        0.0000000000000000        0.0000000000000000     
   1.0000000000000000        0.0000000000000000        0.0000000000000000     
   1.0000000000000000        1.0000000000000000        0.0000000000000000     
   0.0000000000000000        1.0000000000000000        0.0000000000000000     
  0.11111111000000000        0.0000000000000000        0.0000000000000000     
  0.22222222000000000        0.0000000000000000        0.0000000000000000     
  0.33333332999999998        0.0000000000000000        0.0000000000000000     
  0.44444444000000000        0.0000000000000000        0.0000000000000000     
  0.55555555999999995        0.0000000000000000        0.0000000000000000     
  0.66666667000000002        0.0000000000000000        0.0000000000000000     
  0.77777777999999997        0.0000000000000000        0.0000000000000000     
  0.88888889000000004        0.0000000000000000        0.0000000000000000     
   1.0000000000000000       0.11111111000000000        0.0000000000000000     
   1.0000000000000000       0.22222222000000000        0.0000000000000000     
   1.0000000000000000       0.33333332999999998        0.0000000000000000     
   1.0000000000000000       0.44444444000000000        0.0000000000000000     
   1.0000000000000000       0.55555555999999995        0.0000000000000000     
   1.0000000000000000       0.66666667000000002        0.0000000000000000     
   1.0000000000000000       0.77777777999999997        0.0000000000000000     
   1.0000000000000000       0.88888889000000004        0.0000000000000000     
  0.88888889000000004        1.0000000000000000        0.0000000000000000     
  0.77777777999999997        1.0000000000000000        0.0000000000000000     
  0.66666667000000002        1.0000000000000000        0.0000000000000000     
  0.55555555999999995        1.0000000000000000        0.0000000000000000     
  0.44444444000000000        1.0000000000000000        0.0000000000000000     
  0.33333332999999998        1.0000000000000000        0.0000000000000000     
  0.22222222000000000        1.0000000000000000        0.0000000000000000     
  0.11111111000000000        1.0000000000000000        0.0000000000000000     
   0.0000000000000000       0.11111111000000000        0.0000000000000000     
   0.0000000000000000       0.22222222000000000        0.0000000000000000     
[...]
 CELL_DATA         354
 SCALARS E float
 LOOKUP_TABLE default
    0.68426612501743688810E+00
    0.62550568041028398181E+00
    0.63599787881854841221E+00
    0.59290617389246613733E+00
    0.69097758510912143937E+00
    0.64645192974053766743E+00
    0.69388564388304940778E+00
    0.65277969967755389291E+00
    0.68552894119765461767E+00
    0.66925530452290993288E+00
    0.64659649892274340122E+00
    0.66049602873155410787E+00
    0.63491400758524196846E+00
    0.64136094462077319900E+00
    0.65001968918600283587E+00
    0.64649536209017843813E+00
    0.65981758172686078012E+00
    0.66437710412090700274E+00
    0.71843731662529697335E+00
    0.71082609760028181434E+00
    0.66715840599923870169E+00
    0.68548782842278233041E+00
    0.68007550262737492819E+00
    0.65731164607995551385E+00
    0.67562618101813898264E+00
    0.67183092572140834520E+00
    0.68254434145331432937E+00
    0.70195283454601953288E+00
    0.62810885100991231678E+00
    0.64294851599825886268E+00
    0.67736432419886161149E+00
    0.65385156496447616181E+00
    0.68529809820731224512E+00
    0.68034028968621229616E+00
    0.65473546610597033180E+00
    0.66734596993424810663E+00
    0.64759758000914180442E+00
    0.65088415787443132388E+00
    0.66558153124247076970E+00
    0.65948025114388508783E+00
    0.66400878190365786313E+00
    0.66619714772226090727E+00
    0.66812184745199654223E+00
    0.66836820863833867890E+00
    0.66992966233888751049E+00
    0.66460212631825732466E+00
    0.65065124222724057823E+00
    0.65468471894567570324E+00
    0.64348034549570931606E+00
    0.63370068732892814722E+00
    0.60671677903127974041E+00
    0.61334217396515544607E+00
    0.68893280252131927632E+00
    0.69104324368980141191E+00
    0.68848383691880532531E+00
    0.68937276364474775470E+00
    0.67482512712425501977E+00
    0.67689370601579390563E+00
    0.68423578941628926398E+00
    0.68500912291689775024E+00
    0.68289782921103447944E+00
    0.68027766662362709749E+00
    0.66407454686498457175E+00
    0.67281198989939539068E+00
    0.65684747065824955481E+00
    0.64486081290106722630E+00
    0.60346537045585568748E+00
    0.62337883053702491942E+00
    0.60273098365274080379E+00
    0.63681233768556444463E+00
    0.65724763075564807124E+00
    0.61074407401355834679E+00
    0.65737861517904305764E+00
    0.64908685968836465907E+00
    0.67312143669963797610E+00
    0.66737511910649272018E+00
    0.66334704950684619806E+00
    0.65618133664557198870E+00
    0.72575365847997086455E+00
    0.71721994961726609485E+00
    0.63251826648587206048E+00
    0.68861220036873971306E+00
    0.73716288696103049460E+00
    0.64232404582604418763E+00
    0.61604652284683636410E+00
    0.58663761309676454303E+00
    0.41813625821533006999E+00
    0.62770896691517830135E+00
    0.60269563904826983780E+00
    0.63388061911834348017E+00
    0.53256777794065834897E+00
    0.69355089288367166578E+00
    0.67055794916520661264E+00
    0.65669900577857087676E+00
    0.68925193811493967733E+00
    0.64448940764081408261E+00
    0.75680144920021641397E+00
    0.67789289616188264098E+00
    0.65132947020812603789E+00
    0.66710024632348863260E+00
    0.65911928006652209522E+00
    0.66465978995933250317E+00
    0.67269030972265997370E+00
    0.60890102215897301541E+00
    0.60374320865524933044E+00
    0.61431492007888088835E+00
    0.62440939780045767726E+00
    0.59246281008347401187E+00
    0.74769320885186507653E+00
    0.67938363292525683068E+00
    0.70114104190785131454E+00
    0.67705010890871786255E+00
    0.64848916756740027090E+00
    0.64105102787072432147E+00
    0.67428930197364911336E+00
    0.66549315030702238527E+00
    0.74401303713137423301E+00
    0.71423282076570870913E+00
    0.73169973629627593770E+00
    0.62230979064821334568E+00
    0.76642644398652715054E+00
    0.68377188877373495934E+00
    0.68471318110316081729E+00
    0.67933815943606634669E+00
    0.69180559699295995912E+00
    0.68945115467328110803E+00
    0.67387376384553077102E+00
    0.68214946676265053593E+00
    0.65543335396057988973E+00
    0.73208554280781057422E+00
    0.64628251999622254864E+00
    0.72909088874453864548E+00
    0.74833261101282566585E+00
    0.60391029778995641841E+00
    0.68475775714914766112E+00
    0.66400481831705615576E+00
    0.65014291423490877531E+00
    0.67281761104733273093E+00
    0.65360444966147424051E+00
    0.63336936491989559439E+00
    0.65927659858820775174E+00
    0.66121371595171019031E+00
    0.67033822779313390061E+00
    0.66538345070175264340E+00
    0.64903248061561613635E+00
    0.68487952017222297751E+00
    0.68245060618109043560E+00
    0.65169438781901911639E+00
    0.65501194628766334915E+00
    0.63172390147994084142E+00
    0.58847355334704964935E+00
    0.62966352271160230814E+00
    0.61526442540365988698E+00
    0.62350270116489292516E+00
    0.61643630100109314540E+00
    0.66431690661907616402E+00
    0.65519783029538292141E+00
    0.64676111221453425060E+00
    0.66387544023701239304E+00
    0.67179194721709378779E+00
    0.71903115372347126133E+00
    0.65866686453634071263E+00
    0.66197219545927632467E+00
    0.65971214313969861465E+00
    0.73164695930581102878E+00
    0.69658097489360359944E+00
    0.70120240968690461525E+00
    0.70142614336140052256E+00
    0.69112237403024201488E+00
    0.69002053698942766857E+00
    0.66114776775488381944E+00
    0.64029260571480994813E+00
    0.66689442733610482250E+00
    0.65497911571472922088E+00
    0.63352735991479836031E+00
    0.68604326189017816873E+00
    0.73883956430743091826E+00
    0.72566643420429843836E+00
    0.66171312798915038478E+00
    0.72021868842245584386E+00
    0.63057525389475377331E+00
    0.65586585617563730732E+00
    0.64344719813915041140E+00
    0.65997822669899031123E+00
    0.66918150248642738198E+00
    0.65700268745753742650E+00
    0.72455717496278071454E+00
    0.68191887962193531436E+00
    0.71273949947748727052E+00
    0.72918747957155660711E+00
    0.58338607430435285295E+00
    0.61266750826237492689E+00
    0.57277576748909975191E+00
    0.60771080767711471715E+00
    0.56965664701081075716E+00
    0.69776455896210187735E+00
    0.65142321403846348282E+00
    0.68810945087335384507E+00
    0.70302379340003251507E+00
    0.66064981592024951684E+00
    0.67633127762326206156E+00
    0.68610753181979067250E+00
    0.68905006989094508274E+00
    0.68049331873589635755E+00
    0.68212585868395136934E+00
    0.50773304817721010007E+00
    0.63156971820728380340E+00
    0.59710406870003607249E+00
    0.60620519101781111804E+00
    0.62645555006974706913E+00
    0.72751509341323750135E+00
    0.72761357942162274703E+00
    0.67574597723873774946E+00
    0.67342631399392716141E+00
    0.66126650009516341200E+00
    0.65079561732064739044E+00
    0.66311344152896434245E+00
    0.65668844582479735106E+00
    0.65422130061846583970E+00
    0.45269891470259338018E+00
    0.35608545210430175842E+00
    0.33825045774907341878E+00
    0.71722154651862757291E+00
    0.60056231470638032910E+00
    0.76902724079346018726E+00
    0.67719155228478122854E+00
    0.68457077680676325926E+00
    0.69102965161037377406E+00
    0.69237828427815129029E+00
    0.69561653132804091015E+00
    0.66646284307981984441E+00
    0.63199660469553287090E+00
    0.70407223475956204339E+00
    0.71223561307086713512E+00
    0.69993286819070543725E+00
    0.71947325602544132117E+00
    0.66853390249702293602E+00
    0.62040850517560541810E+00
    0.64600697541031071314E+00
    0.61057093042245957903E+00
    0.60922115690278821898E+00
    0.74001060616721048291E+00
    0.63042881928176630613E+00
    0.66284307187151703111E+00
    0.62045292652152861379E+00
    0.65661748683204845811E+00
    0.69393763139069064572E+00
    0.68631038166726243688E+00
    0.67280956690066306969E+00
    0.74782654224848055247E+00
    0.64265614936663384427E+00
    0.61663668951690120412E+00
    0.69301471047687901450E+00
    0.66668109643520834240E+00
    0.70981595956396537073E+00
    0.66369954204379943974E+00
    0.66191492861300449402E+00
    0.66852862489387776534E+00
    0.66187190146192598217E+00
    0.67796441622394487680E+00
    0.68489310365545197357E+00
    0.61929960324967736618E+00
    0.64182722998060837138E+00
    0.65876795632483020615E+00
    0.68879684841522137440E+00
    0.68816875837444602126E+00
    0.65922793069907348329E+00
    0.68249814353073467998E+00
    0.67231444700381959301E+00
    0.64965479952020654952E+00
    0.66013673318699028769E+00
    0.60128585515553900631E+00
    0.60591528542327699469E+00
    0.62266929504815760055E+00
    0.71941035110748374759E+00
    0.66674783101675927366E+00
    0.67115832357615556880E+00
    0.68666754101482152528E+00
    0.64828998921483238504E+00
    0.73011154346933149206E+00
    0.76472999526838913997E+00
    0.64958553788401496298E+00
    0.61476041217838939268E+00
    0.61695246216960397678E+00
    0.54199580341696962371E+00
    0.65794431681112741650E+00
    0.65849321364044433036E+00
    0.68337640603763671887E+00
    0.65537502649624801432E+00
    0.66655808936438742940E+00
    0.67577929638612710406E+00
    0.70346758255053032372E+00
    0.71035035877066177168E+00
    0.62671097645493378803E+00
    0.63406068719752117779E+00
    0.69675236339855073364E+00
    0.66010854678819974595E+00
    0.66506286310948004026E+00
    0.60856350425209093657E+00
    0.69498176058872462857E+00
    0.68705344206541629770E+00
    0.63194854813485834555E+00
    0.68396223328373373374E+00
    0.61590243918420461977E+00
    0.71256603309100952082E+00
    0.66819105564191227931E+00
    0.73365890830689051150E+00
    0.66596879619434257158E+00
    0.69705861201491570167E+00
    0.70079209036622869267E+00
    0.74697723017020944969E+00
    0.66843506569985833288E+00
    0.63982416616918291741E+00
    0.67049962478460511939E+00
    0.64979247474063051015E+00
    0.66635489109014567344E+00
    0.48449452588890934424E+00
    0.67166868969356330332E+00
    0.68718796387777003609E+00
    0.67469599840388294609E+00
    0.69558638538567962861E+00
    0.64006386783456614697E+00
    0.62984851835897370798E+00
    0.62267749843584119240E+00
    0.58250854014157793515E+00
    0.57546587285961148250E+00
    0.65009832207067330678E+00
    0.69204769636928564758E+00
    0.65947397541931596088E+00
    0.64482894128491374808E+00
    0.64210602955202833453E+00
    0.65310869364991142039E+00
    0.68575394770118958121E+00
    0.67233890406769492021E+00
    0.69279851564299588240E+00
    0.68569689025739177790E+00
    0.65841539197876830514E+00
    0.65774279965184290209E+00
    0.68031823499781407527E+00
    0.66518956660357275723E+00
    0.64022980198108569994E+00
    0.65151789928710124311E+00
    0.65665284643502996875E+00
    0.65506700930528616311E+00
    0.64757418535868938037E+00
    0.63333011481425338651E+00
    0.61199316832324035520E+00
    0.68127553334859602963E+00
    0.68191946940695236101E+00
    0.68198547020759003878E+00
    0.67789075893859951361E+00
    0.66916914870744548249E+00
    0.64985190336597775662E+00
    0.62246444953342539019E+00
