# vtk DataFile Version 3.0
LAPLACIEN  2D
ASCII
DATASET UNSTRUCTURED_GRID
 POINTS         391  float
  0.50371505999999999       0.50367786999999997        0.0000000000000000     
  0.29013556000000001       0.29014535000000002        0.0000000000000000     
  0.70165584999999997       0.71206597999999999        0.0000000000000000     
  0.70304188999999995       0.30176619999999998        0.0000000000000000     
  0.30920671999999999       0.71149227999999998        0.0000000000000000     
  0.79044983999999996       0.49884783999999999        0.0000000000000000     
  0.49102621000000002       0.20968644000000000        0.0000000000000000     
  0.49912957000000002       0.77208717000000004        0.0000000000000000     
  0.21724072999999999       0.48989389000000000        0.0000000000000000     
  0.83255933999999998       0.83046598000000005        0.0000000000000000     
  0.16646774000000000       0.17015694000000001        0.0000000000000000     
  0.83054514999999995       0.16736480000000001        0.0000000000000000     
  0.16953130999999999       0.83265739000000005        0.0000000000000000     
  0.42166445000000002       0.36345201999999999        0.0000000000000000     
  0.64462200999999997       0.56347807999999999        0.0000000000000000     
  0.35324633999999999       0.56311191000000005        0.0000000000000000     
  0.65456411000000003       0.84856860999999995        0.0000000000000000     
  0.35141477999999998       0.15563974000000000        0.0000000000000000     
  0.15290967000000000       0.35206625000000003        0.0000000000000000     
  0.82942241000000005       0.34936866000000000        0.0000000000000000     
  0.84390527000000004       0.64441694999999999        0.0000000000000000     
  0.63699174999999997       0.14284276000000001        0.0000000000000000     
  0.15620682999999999       0.64648446999999998        0.0000000000000000     
  0.36426062999999997       0.85756310999999996        0.0000000000000000     
  0.63489340999999999       0.40519052000000000        0.0000000000000000     
  0.52518872999999999       0.65957078000000002        0.0000000000000000     
  0.32158959999999998       0.42298103999999997        0.0000000000000000     
  0.58861710000000000       0.31711036999999997        0.0000000000000000     
  0.42078418000000001       0.69497151999999995        0.0000000000000000     
  0.48608786999999998       0.89334152000000000        0.0000000000000000     
   9.7084320000000002E-002  0.50000000000000000        0.0000000000000000     
  0.90291568000000000       0.50000000000000000        0.0000000000000000     
  0.51392453000000005       0.10668648999999999        0.0000000000000000     
  0.59792566999999996       0.73122754000000001        0.0000000000000000     
  0.74510058999999995       0.41124730999999998        0.0000000000000000     
  0.73212551999999997       0.90191560000000004        0.0000000000000000     
   9.7784830000000003E-002  0.26957329000000002        0.0000000000000000     
  0.26711221000000002        9.8671499999999995E-002   0.0000000000000000     
  0.90191560000000004       0.26787448000000003        0.0000000000000000     
  0.90118569000000004       0.73039821000000005        0.0000000000000000     
  0.73122947000000005        9.8017859999999998E-002   0.0000000000000000     
   9.8084400000000002E-002  0.73212551999999997        0.0000000000000000     
  0.26957329000000002       0.90221516999999996        0.0000000000000000     
  0.39283522999999998       0.25360379000000000        0.0000000000000000     
  0.74480864000000002       0.60495284999999999        0.0000000000000000     
  0.25505132000000003       0.60593640999999998        0.0000000000000000     
  0.52159297999999998       0.40671636000000000        0.0000000000000000     
  0.40768852000000000       0.47699891000000000        0.0000000000000000     
   9.1467049999999994E-002   9.1876959999999994E-002   0.0000000000000000     
  0.90842484999999995       0.90819225000000003        0.0000000000000000     
  0.90820104999999995        9.1566729999999999E-002   0.0000000000000000     
   9.1807449999999999E-002  0.90843574000000005        0.0000000000000000     
  0.27098960000000000       0.20527094000000001        0.0000000000000000     
  0.73457293999999995       0.79835387000000002        0.0000000000000000     
  0.79817773000000003       0.25713470999999999        0.0000000000000000     
  0.20747797000000001       0.72863946000000002        0.0000000000000000     
  0.20175195000000001       0.27583914999999998        0.0000000000000000     
  0.79603889000000005       0.72159035000000005        0.0000000000000000     
  0.71761666000000002       0.19748431999999999        0.0000000000000000     
  0.28462607000000001       0.80251899999999998        0.0000000000000000     
  0.69134598999999997       0.49261972999999998        0.0000000000000000     
  0.44720578999999999       0.58582935999999997        0.0000000000000000     
  0.24242269999999999       0.37228174000000003        0.0000000000000000     
  0.38265623999999998       0.93072131999999996        0.0000000000000000     
  0.60971754000000000       0.91988369000000003        0.0000000000000000     
   7.9163609999999995E-002  0.60979116000000000        0.0000000000000000     
  0.92010649000000000       0.61081183999999999        0.0000000000000000     
  0.61954008999999999        7.1530830000000004E-002   0.0000000000000000     
  0.91882012999999996       0.38917363999999999        0.0000000000000000     
  0.39086346000000000        8.0652249999999995E-002   0.0000000000000000     
   7.9183480000000001E-002  0.38966213000000000        0.0000000000000000     
  0.59114111999999996       0.49294315000000000        0.0000000000000000     
  0.63337980999999999       0.64485914000000000        0.0000000000000000     
  0.50012352000000004       0.29676539000000002        0.0000000000000000     
  0.82552601000000003       0.92753492000000004        0.0000000000000000     
  0.92774772999999999       0.82498556999999995        0.0000000000000000     
   7.1970870000000006E-002  0.17510291000000000        0.0000000000000000     
  0.17422821999999999        7.2635640000000001E-002   0.0000000000000000     
  0.82510813000000005        7.2134840000000006E-002   0.0000000000000000     
  0.92754665000000003       0.17446275999999999        0.0000000000000000     
  0.17501022999999999       0.92789951999999998        0.0000000000000000     
   7.2464680000000004E-002  0.82554053000000005        0.0000000000000000     
  0.30731587999999999       0.50885354999999999        0.0000000000000000     
  0.59033407999999998       0.22171178999999999        0.0000000000000000     
  0.40109191999999999       0.78725542000000004        0.0000000000000000     
  0.35420917000000002       0.63754104000000000        0.0000000000000000     
  0.15983976999999999       0.56665573000000002        0.0000000000000000     
  0.84108459999999996       0.56757886999999996        0.0000000000000000     
  0.83902096000000004       0.43344338999999998        0.0000000000000000     
  0.43230028999999998       0.16004268999999999        0.0000000000000000     
  0.57536027999999995       0.83041363999999995        0.0000000000000000     
  0.15771898000000001       0.42747892999999998        0.0000000000000000     
  0.34021692999999997       0.34221559000000001        0.0000000000000000     
  0.56002271999999997       0.57501117999999996        0.0000000000000000     
  0.65344329000000001       0.78147597999999996        0.0000000000000000     
   0.0000000000000000        0.0000000000000000        0.0000000000000000     
   1.0000000000000000        0.0000000000000000        0.0000000000000000     
   1.0000000000000000        1.0000000000000000        0.0000000000000000     
   0.0000000000000000        1.0000000000000000        0.0000000000000000     
  0.11111111000000000        0.0000000000000000        0.0000000000000000     
  0.22222222000000000        0.0000000000000000        0.0000000000000000     
  0.33333332999999998        0.0000000000000000        0.0000000000000000     
  0.44444444000000000        0.0000000000000000        0.0000000000000000     
  0.55555555999999995        0.0000000000000000        0.0000000000000000     
  0.66666667000000002        0.0000000000000000        0.0000000000000000     
  0.77777777999999997        0.0000000000000000        0.0000000000000000     
  0.88888889000000004        0.0000000000000000        0.0000000000000000     
   1.0000000000000000       0.11111111000000000        0.0000000000000000     
   1.0000000000000000       0.22222222000000000        0.0000000000000000     
   1.0000000000000000       0.33333332999999998        0.0000000000000000     
   1.0000000000000000       0.44444444000000000        0.0000000000000000     
   1.0000000000000000       0.55555555999999995        0.0000000000000000     
   1.0000000000000000       0.66666667000000002        0.0000000000000000     
   1.0000000000000000       0.77777777999999997        0.0000000000000000     
   1.0000000000000000       0.88888889000000004        0.0000000000000000     
  0.88888889000000004        1.0000000000000000        0.0000000000000000     
  0.77777777999999997        1.0000000000000000        0.0000000000000000     
  0.66666667000000002        1.0000000000000000        0.0000000000000000     
  0.55555555999999995        1.0000000000000000        0.0000000000000000     
  0.44444444000000000        1.0000000000000000        0.0000000000000000     
  0.33333332999999998        1.0000000000000000        0.0000000000000000     
  0.22222222000000000        1.0000000000000000        0.0000000000000000     
  0.11111111000000000        1.0000000000000000        0.0000000000000000     
   0.0000000000000000       0.11111111000000000        0.0000000000000000     
   0.0000000000000000       0.22222222000000000        0.0000000000000000     
[...]
 CELL_DATA         354
 SCALARS E float
 LOOKUP_TABLE default
    0.68125328818452002277E+00
    0.62034410573036202763E+00
    0.63383846696885748351E+00
    0.59152299849913403396E+00
    0.68692933716762794027E+00
    0.63942387901011499274E+00
    0.69370221289531974751E+00
    0.64859475560974699793E+00
    0.68352985371900354394E+00
    0.66647218306460886961E+00
    0.64449760620917784237E+00
    0.65820019847056410178E+00
    0.63251562947517792068E+00
    0.63906120607246652554E+00
    0.64786968405131062365E+00
    0.64435097635549309913E+00
    0.65775065258945508706E+00
    0.66188507263928531010E+00
    0.71691598010910650984E+00
    0.70888595475197935247E+00
    0.66314921798011716714E+00
    0.68283641997671529200E+00
    0.67781632984363082706E+00
    0.65408908533083676140E+00
    0.67339790323086157198E+00
    0.66973943740295904803E+00
    0.67980426971209739762E+00
    0.70015282893885355531E+00
    0.62487797735134920085E+00
    0.63792078060579093801E+00
    0.67312214124226654732E+00
    0.64708407056921091183E+00
    0.68221045795350820917E+00
    0.67758659611778671028E+00
    0.65230341919278700402E+00
    0.66477855653399198221E+00
    0.64538547455022254873E+00
    0.64848637958770227741E+00
    0.66297136934057598889E+00
    0.65702737468996330605E+00
    0.66111837110635118808E+00
    0.66335979832777669518E+00
    0.66520871037208917365E+00
    0.66554180420261688234E+00
    0.66722933247544879976E+00
    0.66205699558081620992E+00
    0.64810690765699863203E+00
    0.65207097154367799074E+00
    0.64114231721878434112E+00
    0.63175431855325481223E+00
    0.60497785385013125303E+00
    0.61120473116439011374E+00
    0.68587856045968076391E+00
    0.68798863565597123682E+00
    0.68491156689108145805E+00
    0.68597449910940078155E+00
    0.66998734339588983389E+00
    0.67219338085964019935E+00
    0.68074969571161092485E+00
    0.68144991199036375473E+00
    0.67970038185200221115E+00
    0.67722688657784035904E+00
    0.66119835060554599249E+00
    0.66986868728601500766E+00
    0.65434410413293386810E+00
    0.64272786139644244585E+00
    0.60119157329790307021E+00
    0.62122889508979028950E+00
    0.60101057299448801263E+00
    0.63520673607266497918E+00
    0.65553515295875808278E+00
    0.60823033949135152376E+00
    0.65615769463738771172E+00
    0.64741866362151712089E+00
    0.67110164770811531199E+00
    0.66439076817591624646E+00
    0.66037176022538635056E+00
    0.65412923246035781233E+00
    0.72762866065091036383E+00
    0.71667726092795636106E+00
    0.62621182415787945974E+00
    0.68710512527998757193E+00
    0.73658309238763208793E+00
    0.63879060498763995390E+00
    0.61458440260770952346E+00
    0.58744898505621256923E+00
    0.41617031673007365278E+00
    0.62786496972478444967E+00
    0.60112758748831995881E+00
    0.63267353436487705487E+00
    0.53250625569969867179E+00
    0.69077290700056337425E+00
    0.66811293096584534190E+00
    0.65088119752134443452E+00
    0.68562950337510808474E+00
    0.63826195325946322168E+00
    0.76012799041429057745E+00
    0.67530850094005678841E+00
    0.65005074997259448821E+00
    0.66446372893638239177E+00
    0.65778783070365165475E+00
    0.66119232106521341752E+00
    0.67118048911370531417E+00
    0.60863082615022789934E+00
    0.60343470831914669539E+00
    0.61450125026652024918E+00
    0.62524637422698470246E+00
    0.59107960825140926087E+00
    0.74840171658400256316E+00
    0.67744320103473576467E+00
    0.69772980788351590675E+00
    0.67476600005483089451E+00
    0.64390524447471708669E+00
    0.63592796461112444106E+00
    0.67190821555473989601E+00
    0.66156704869464144636E+00
    0.74591322077017396808E+00
    0.71308251695375690637E+00
    0.73001064811418558964E+00
    0.61876042832774802438E+00
    0.76774304497730794239E+00
    0.68076099815015445049E+00
    0.68103606756459444949E+00
    0.67673769140582973325E+00
    0.68815461332245708714E+00
    0.68536176328958975379E+00
    0.67093051590826247033E+00
    0.67916558708724428239E+00
    0.65140903347461598383E+00
    0.73179238053534889641E+00
    0.64128577417725540766E+00
    0.72787204546265005245E+00
    0.74818138622065544219E+00
    0.59563880896699994416E+00
    0.68380218493409217206E+00
    0.66139326937242959303E+00
    0.64812847973695020265E+00
    0.67029966567710086434E+00
    0.65191040303370728637E+00
    0.63134249081029791828E+00
    0.65669648501147726005E+00
    0.65762192637838357001E+00
    0.66755757102985224805E+00
    0.66264980577046828092E+00
    0.64679946244835950786E+00
    0.68219956620734367725E+00
    0.67974901374192486792E+00
    0.64919840012702700882E+00
    0.65245473073750437365E+00
    0.62972224615619643018E+00
    0.58639992943159913175E+00
    0.62973287748082862336E+00
    0.61319493282421411173E+00
    0.62398863055530096045E+00
    0.61449172739449131608E+00
    0.66154195690131178953E+00
    0.65381165040893340912E+00
    0.64554085973100494567E+00
    0.66080595906686656615E+00
    0.67067748777482372180E+00
    0.71673778238601781876E+00
    0.65628298051241118483E+00
    0.65922299727054511909E+00
    0.65588525813068054848E+00
    0.73080303005322477805E+00
    0.69398312866027223045E+00
    0.69820428109168819475E+00
    0.69902532219505486566E+00
    0.68777036344924125100E+00
    0.68614300002645067789E+00
    0.65784321774702581020E+00
    0.63859295877747768166E+00
    0.66452067964474226258E+00
    0.65251737872766857329E+00
    0.63113731851902565850E+00
    0.68399598975732733841E+00
    0.73949833521604291242E+00
    0.72527077490014002503E+00
    0.65916197807543830400E+00
    0.72070169176032805591E+00
    0.62861152172179679543E+00
    0.65289524371621832088E+00
    0.64169178415251415526E+00
    0.65683326128224761575E+00
    0.66767852021984730460E+00
    0.65227227369050466699E+00
    0.72484999564379415382E+00
    0.67952845323632415919E+00
    0.71175834371977220183E+00
    0.72939796239287879587E+00
    0.58082141128837883048E+00
    0.61041365645178069510E+00
    0.57022524580393851856E+00
    0.60550622087774530478E+00
    0.56832926372574688045E+00
    0.69533934940230046617E+00
    0.64474476200432029316E+00
    0.68453439808437022140E+00
    0.70052028781904507326E+00
    0.65466090466149096105E+00
    0.67294628897632302600E+00
    0.68367305931429345200E+00
    0.68615134387738463406E+00
    0.67770375338235244733E+00
    0.67865425640522603068E+00
    0.50655982348635886225E+00
    0.63203134986623044078E+00
    0.59869091923416528633E+00
    0.60461565228089308999E+00
    0.62694428647216227102E+00
    0.72689294981377861049E+00
    0.72708699092783835027E+00
    0.67293909089892200992E+00
    0.66999990531774789027E+00
    0.65818793728907776241E+00
    0.64881762544955756677E+00
    0.66060447946899869542E+00
    0.65346826419514569828E+00
    0.65223838322241034504E+00
    0.45014236359549575361E+00
    0.35261950616088338917E+00
    0.33628761425092179582E+00
    0.71582143072308790366E+00
    0.59391831362710123532E+00
    0.77039390309877942009E+00
    0.67432187619474270868E+00
    0.68170011578473599378E+00
    0.68745067557120453916E+00
    0.68907043484462071614E+00
    0.69244420390047989322E+00
    0.66099704820615312606E+00
    0.62504968292542628649E+00
    0.70148829664776080062E+00
    0.71166944206977289511E+00
    0.69718693935428222019E+00
    0.71749326393551182690E+00
    0.66536094543898072207E+00
    0.61837520683108915254E+00
    0.64431220134779954023E+00
    0.61085552330405967769E+00
    0.60700139971410160822E+00
    0.73935515563886822221E+00
    0.62401120605204962732E+00
    0.66037824682048562597E+00
    0.61843187169775704071E+00
    0.65544030764470662120E+00
    0.69113459434897683842E+00
    0.68365788569498053828E+00
    0.67000377971990476844E+00
    0.74875577644448898518E+00
    0.63656594061943727603E+00
    0.61006731308476891407E+00
    0.69048052894349976061E+00
    0.66365693226818145423E+00
    0.71002184815841362653E+00
    0.66189609896668588629E+00
    0.65883153450552134345E+00
    0.66549002676829616121E+00
    0.65690047886808744515E+00
    0.67375788032672057071E+00
    0.68181520257233974025E+00
    0.61717465922517766863E+00
    0.64004718325773368726E+00
    0.65661657924685801202E+00
    0.68612867798349130855E+00
    0.68557998315094692554E+00
    0.65664738363990582393E+00
    0.67987080389188814245E+00
    0.66981276521810395597E+00
    0.64710400095530973275E+00
    0.65881083380905591795E+00
    0.60120114017678238927E+00
    0.60388587096009493926E+00
    0.62073561879500893657E+00
    0.71976054120826704619E+00
    0.66505023955981013017E+00
    0.66770031438634092069E+00
    0.68415097083669718092E+00
    0.64189620382118273145E+00
    0.72793150447649790369E+00
    0.76738123383365686170E+00
    0.64644570525152678098E+00
    0.61369054484743723599E+00
    0.61687245019561309789E+00
    0.54155587110399594497E+00
    0.65600670141824179993E+00
    0.65606174879904943786E+00
    0.67819054259189837097E+00
    0.65136395006819647335E+00
    0.66405593579400445936E+00
    0.67328918709972040979E+00
    0.70126956946089169520E+00
    0.70854978818963820775E+00
    0.62422621172771808329E+00
    0.63173569183151068174E+00
    0.69433841446627830862E+00
    0.65573114144804023340E+00
    0.65882597476699700234E+00
    0.60632905665480307800E+00
    0.69211427765732158601E+00
    0.68466097407154391519E+00
    0.63166484601815753308E+00
    0.68019777416860738306E+00
    0.61371030932130776758E+00
    0.71138405982212105094E+00
    0.66623178195107102262E+00
    0.73315187204895004847E+00
    0.66365010815676162004E+00
    0.69440832862196422148E+00
    0.69770810390370530119E+00
    0.74710597693535918395E+00
    0.66534627401577461914E+00
    0.63761062186166150845E+00
    0.66698756975713269224E+00
    0.64868416590173005876E+00
    0.66361961266229219092E+00
    0.48322867573036876188E+00
    0.66600058474649603824E+00
    0.68436836472134099374E+00
    0.67159463647480932558E+00
    0.69326757831183138947E+00
    0.63442156044358011258E+00
    0.62767518479053752145E+00
    0.62070997452527842952E+00
    0.58152703879695577527E+00
    0.57374930683964175948E+00
    0.64411294219053194521E+00
    0.69017729741186728543E+00
    0.65613286737454634689E+00
    0.64163793869332308439E+00
    0.63892979384689962963E+00
    0.64996370044762119544E+00
    0.68337097095624821375E+00
    0.66916777174629582525E+00
    0.69045518392529015017E+00
    0.68345156157139197450E+00
    0.65464016897230992154E+00
    0.65144533304094198733E+00
    0.67705055121268986618E+00
    0.66256243592217833882E+00
    0.63787711231777011189E+00
    0.64889693503032053190E+00
    0.65397854786964004781E+00
    0.65237789956707903372E+00
    0.64510054843035224970E+00
    0.63111085841855785183E+00
    0.61036148102284371042E+00
    0.67804052137886272611E+00
    0.67849461977131220181E+00
    0.67863216805070514237E+00
    0.67467634461498138254E+00
    0.66626403770790210146E+00
    0.64728139933046813237E+00
    0.62054766765174429466E+00
