# vtk DataFile Version 3.0
LAPLACIEN  2D
ASCII
DATASET UNSTRUCTURED_GRID
 POINTS         391  float
  0.50371505999999999       0.50367786999999997        0.0000000000000000     
  0.29013556000000001       0.29014535000000002        0.0000000000000000     
  0.70165584999999997       0.71206597999999999        0.0000000000000000     
  0.70304188999999995       0.30176619999999998        0.0000000000000000     
  0.30920671999999999       0.71149227999999998        0.0000000000000000     
  0.79044983999999996       0.49884783999999999        0.0000000000000000     
  0.49102621000000002       0.20968644000000000        0.0000000000000000     
  0.49912957000000002       0.77208717000000004        0.0000000000000000     
  0.21724072999999999       0.48989389000000000        0.0000000000000000     
  0.83255933999999998       0.83046598000000005        0.0000000000000000     
  0.16646774000000000       0.17015694000000001        0.0000000000000000     
  0.83054514999999995       0.16736480000000001        0.0000000000000000     
  0.16953130999999999       0.83265739000000005        0.0000000000000000     
  0.42166445000000002       0.36345201999999999        0.0000000000000000     
  0.64462200999999997       0.56347807999999999        0.0000000000000000     
  0.35324633999999999       0.56311191000000005        0.0000000000000000     
  0.65456411000000003       0.84856860999999995        0.0000000000000000     
  0.35141477999999998       0.15563974000000000        0.0000000000000000     
  0.15290967000000000       0.35206625000000003        0.0000000000000000     
  0.82942241000000005       0.34936866000000000        0.0000000000000000     
  0.84390527000000004       0.64441694999999999        0.0000000000000000     
  0.63699174999999997       0.14284276000000001        0.0000000000000000     
  0.15620682999999999       0.64648446999999998        0.0000000000000000     
  0.36426062999999997       0.85756310999999996        0.0000000000000000     
  0.63489340999999999       0.40519052000000000        0.0000000000000000     
  0.52518872999999999       0.65957078000000002        0.0000000000000000     
  0.32158959999999998       0.42298103999999997        0.0000000000000000     
  0.58861710000000000       0.31711036999999997        0.0000000000000000     
  0.42078418000000001       0.69497151999999995        0.0000000000000000     
  0.48608786999999998       0.89334152000000000        0.0000000000000000     
   9.7084320000000002E-002  0.50000000000000000        0.0000000000000000     
  0.90291568000000000       0.50000000000000000        0.0000000000000000     
  0.51392453000000005       0.10668648999999999        0.0000000000000000     
  0.59792566999999996       0.73122754000000001        0.0000000000000000     
  0.74510058999999995       0.41124730999999998        0.0000000000000000     
  0.73212551999999997       0.90191560000000004        0.0000000000000000     
   9.7784830000000003E-002  0.26957329000000002        0.0000000000000000     
  0.26711221000000002        9.8671499999999995E-002   0.0000000000000000     
  0.90191560000000004       0.26787448000000003        0.0000000000000000     
  0.90118569000000004       0.73039821000000005        0.0000000000000000     
  0.73122947000000005        9.8017859999999998E-002   0.0000000000000000     
   9.8084400000000002E-002  0.73212551999999997        0.0000000000000000     
  0.26957329000000002       0.90221516999999996        0.0000000000000000     
  0.39283522999999998       0.25360379000000000        0.0000000000000000     
  0.74480864000000002       0.60495284999999999        0.0000000000000000     
  0.25505132000000003       0.60593640999999998        0.0000000000000000     
  0.52159297999999998       0.40671636000000000        0.0000000000000000     
  0.40768852000000000       0.47699891000000000        0.0000000000000000     
   9.1467049999999994E-002   9.1876959999999994E-002   0.0000000000000000     
  0.90842484999999995       0.90819225000000003        0.0000000000000000     
  0.90820104999999995        9.1566729999999999E-002   0.0000000000000000     
   9.1807449999999999E-002  0.90843574000000005        0.0000000000000000     
  0.27098960000000000       0.20527094000000001        0.0000000000000000     
  0.73457293999999995       0.79835387000000002        0.0000000000000000     
  0.79817773000000003       0.25713470999999999        0.0000000000000000     
  0.20747797000000001       0.72863946000000002        0.0000000000000000     
  0.20175195000000001       0.27583914999999998        0.0000000000000000     
  0.79603889000000005       0.72159035000000005        0.0000000000000000     
  0.71761666000000002       0.19748431999999999        0.0000000000000000     
  0.28462607000000001       0.80251899999999998        0.0000000000000000     
  0.69134598999999997       0.49261972999999998        0.0000000000000000     
  0.44720578999999999       0.58582935999999997        0.0000000000000000     
  0.24242269999999999       0.37228174000000003        0.0000000000000000     
  0.38265623999999998       0.93072131999999996        0.0000000000000000     
  0.60971754000000000       0.91988369000000003        0.0000000000000000     
   7.9163609999999995E-002  0.60979116000000000        0.0000000000000000     
  0.92010649000000000       0.61081183999999999        0.0000000000000000     
  0.61954008999999999        7.1530830000000004E-002   0.0000000000000000     
  0.91882012999999996       0.38917363999999999        0.0000000000000000     
  0.39086346000000000        8.0652249999999995E-002   0.0000000000000000     
   7.9183480000000001E-002  0.38966213000000000        0.0000000000000000     
  0.59114111999999996       0.49294315000000000        0.0000000000000000     
  0.63337980999999999       0.64485914000000000        0.0000000000000000     
  0.50012352000000004       0.29676539000000002        0.0000000000000000     
  0.82552601000000003       0.92753492000000004        0.0000000000000000     
  0.92774772999999999       0.82498556999999995        0.0000000000000000     
   7.1970870000000006E-002  0.17510291000000000        0.0000000000000000     
  0.17422821999999999        7.2635640000000001E-002   0.0000000000000000     
  0.82510813000000005        7.2134840000000006E-002   0.0000000000000000     
  0.92754665000000003       0.17446275999999999        0.0000000000000000     
  0.17501022999999999       0.92789951999999998        0.0000000000000000     
   7.2464680000000004E-002  0.82554053000000005        0.0000000000000000     
  0.30731587999999999       0.50885354999999999        0.0000000000000000     
  0.59033407999999998       0.22171178999999999        0.0000000000000000     
  0.40109191999999999       0.78725542000000004        0.0000000000000000     
  0.35420917000000002       0.63754104000000000        0.0000000000000000     
  0.15983976999999999       0.56665573000000002        0.0000000000000000     
  0.84108459999999996       0.56757886999999996        0.0000000000000000     
  0.83902096000000004       0.43344338999999998        0.0000000000000000     
  0.43230028999999998       0.16004268999999999        0.0000000000000000     
  0.57536027999999995       0.83041363999999995        0.0000000000000000     
  0.15771898000000001       0.42747892999999998        0.0000000000000000     
  0.34021692999999997       0.34221559000000001        0.0000000000000000     
  0.56002271999999997       0.57501117999999996        0.0000000000000000     
  0.65344329000000001       0.78147597999999996        0.0000000000000000     
   0.0000000000000000        0.0000000000000000        0.0000000000000000     
   1.0000000000000000        0.0000000000000000        0.0000000000000000     
   1.0000000000000000        1.0000000000000000        0.0000000000000000     
   0.0000000000000000        1.0000000000000000        0.0000000000000000     
  0.11111111000000000        0.0000000000000000        0.0000000000000000     
  0.22222222000000000        0.0000000000000000        0.0000000000000000     
  0.33333332999999998        0.0000000000000000        0.0000000000000000     
  0.44444444000000000        0.0000000000000000        0.0000000000000000     
  0.55555555999999995        0.0000000000000000        0.0000000000000000     
  0.66666667000000002        0.0000000000000000        0.0000000000000000     
  0.77777777999999997        0.0000000000000000        0.0000000000000000     
  0.88888889000000004        0.0000000000000000        0.0000000000000000     
   1.0000000000000000       0.11111111000000000        0.0000000000000000     
   1.0000000000000000       0.22222222000000000        0.0000000000000000     
   1.0000000000000000       0.33333332999999998        0.0000000000000000     
   1.0000000000000000       0.44444444000000000        0.0000000000000000     
   1.0000000000000000       0.55555555999999995        0.0000000000000000     
   1.0000000000000000       0.66666667000000002        0.0000000000000000     
   1.0000000000000000       0.77777777999999997        0.0000000000000000     
   1.0000000000000000       0.88888889000000004        0.0000000000000000     
  0.88888889000000004        1.0000000000000000        0.0000000000000000     
  0.77777777999999997        1.0000000000000000        0.0000000000000000     
  0.66666667000000002        1.0000000000000000        0.0000000000000000     
  0.55555555999999995        1.0000000000000000        0.0000000000000000     
  0.44444444000000000        1.0000000000000000        0.0000000000000000     
  0.33333332999999998        1.0000000000000000        0.0000000000000000     
  0.22222222000000000        1.0000000000000000        0.0000000000000000     
  0.11111111000000000        1.0000000000000000        0.0000000000000000     
   0.0000000000000000       0.11111111000000000        0.0000000000000000     
   0.0000000000000000       0.22222222000000000        0.0000000000000000     
[...]
 CELL_DATA         354
 SCALARS E float
 LOOKUP_TABLE default
    0.70118737901709327076E+00
    0.69364957960613149446E+00
    0.64437147283741202930E+00
    0.58976323823604470675E+00
    0.73911386952890700819E+00
    0.72888697406341762530E+00
    0.68669909861485090019E+00
    0.71229709472614677335E+00
    0.68527118949634902023E+00
    0.67098189980470790417E+00
    0.60933760831069871955E+00
    0.63540684581572492995E+00
    0.60677147661915276089E+00
    0.60117570488903138148E+00
    0.62446649146946564546E+00
    0.61429720164648604630E+00
    0.63195858471805177459E+00
    0.66878684809814614720E+00
    0.72048762769225183078E+00
    0.69687394707707606134E+00
    0.70425948257584114476E+00
    0.69859719705740286333E+00
    0.66902581846160780188E+00
    0.68347469194817433991E+00
    0.65828678783837624167E+00
    0.66838966365865792874E+00
    0.69341391867842228081E+00
    0.68543158173787421816E+00
    0.69294458514423107331E+00
    0.70631818061710371914E+00
    0.71656077757741731826E+00
    0.71767099985260329742E+00
    0.70224546901300022306E+00
    0.70176413125819769867E+00
    0.68950201427011803545E+00
    0.69783446310130825552E+00
    0.66248584905202534401E+00
    0.67047193809602445569E+00
    0.67606394666154445705E+00
    0.67251685724754173279E+00
    0.67825147464800283892E+00
    0.68302384780774794137E+00
    0.67902749564318354292E+00
    0.68308034726353916710E+00
    0.67665733241410663812E+00
    0.67244210094154954760E+00
    0.66249304405720277344E+00
    0.66774573392022484875E+00
    0.65094901237086166823E+00
    0.64096481454962217494E+00
    0.61993279441491111470E+00
    0.63223084070197810291E+00
    0.70908798413744089650E+00
    0.71332176314026618513E+00
    0.70322025609158977932E+00
    0.70709228414978797517E+00
    0.69942707859330577325E+00
    0.70409458397859780998E+00
    0.70796343259459415531E+00
    0.70912522186072846075E+00
    0.70102813612877035165E+00
    0.70072272958943926380E+00
    0.68438257206811048405E+00
    0.69680987766789415083E+00
    0.66735126174815007083E+00
    0.65703737609543955145E+00
    0.63104289296545890142E+00
    0.64519320098665922103E+00
    0.62707349111676569109E+00
    0.67183798704138641966E+00
    0.71694186792556080512E+00
    0.64286688180399720327E+00
    0.70270379719817133157E+00
    0.64663190158782801742E+00
    0.69095398048957301640E+00
    0.73135180333494687055E+00
    0.73386639951187637720E+00
    0.69235541936526168172E+00
    0.72562594372438127266E+00
    0.71639183974904840913E+00
    0.74453604865781430888E+00
    0.73282839277346667473E+00
    0.73535362615163257782E+00
    0.72064504062524603611E+00
    0.65658340477825438697E+00
    0.71084622586869172789E+00
    0.80643601882579774021E+00
    0.66189197957562173613E+00
    0.65535594565707333548E+00
    0.67042500965278162273E+00
    0.74005627887072700233E+00
    0.76691255730353136144E+00
    0.76017896970499809761E+00
    0.75209448150441016168E+00
    0.74715928162387168499E+00
    0.75381414231246879343E+00
    0.76880242396481879297E+00
    0.72761342285257224471E+00
    0.66649295378329198591E+00
    0.70760416132498926700E+00
    0.69931676464516390190E+00
    0.69456933721861724429E+00
    0.70651544584480063804E+00
    0.67372356447526260403E+00
    0.67795647326395114263E+00
    0.69136275625614695972E+00
    0.68301167310865174009E+00
    0.64542086637767148716E+00
    0.74252125597067086815E+00
    0.73866553489487118966E+00
    0.76447988478441586402E+00
    0.73979283529764294780E+00
    0.75588012318490305219E+00
    0.74525637175764214426E+00
    0.74325305781281247874E+00
    0.74891873955679866270E+00
    0.74737860621415697082E+00
    0.72436681176689776684E+00
    0.74906292380402594855E+00
    0.72472946196672105579E+00
    0.72869111914427819876E+00
    0.73381568159605914392E+00
    0.73886019980424588738E+00
    0.71625314705051068565E+00
    0.75823495561045284319E+00
    0.75585349113234401308E+00
    0.70696038354672008364E+00
    0.71946718565786238475E+00
    0.73593841610081367488E+00
    0.72960898531772977460E+00
    0.73491574746559940046E+00
    0.74889599486017299768E+00
    0.75117258135770281768E+00
    0.72360305984091699560E+00
    0.72243466240412290702E+00
    0.70576950634047197486E+00
    0.68128747800908540100E+00
    0.70272425804107585545E+00
    0.70706198391607344433E+00
    0.69275122855117199361E+00
    0.67551607001696167831E+00
    0.68235803469480382777E+00
    0.71235644377429685470E+00
    0.70454518575100866240E+00
    0.67923556863130929440E+00
    0.74154560179171091772E+00
    0.73694985052022121685E+00
    0.67784752993936547849E+00
    0.68285615448612957401E+00
    0.66271306102956828443E+00
    0.64836314579340392772E+00
    0.68467422182796122687E+00
    0.67069734222425003711E+00
    0.68341820387851515139E+00
    0.64308254054205649108E+00
    0.74196024977076679985E+00
    0.68538695254687576064E+00
    0.65521407908939743869E+00
    0.73425692758444072172E+00
    0.70327855687347440306E+00
    0.76672127329389183625E+00
    0.66731918901371756192E+00
    0.69743771187249414822E+00
    0.72038004981291436923E+00
    0.73653609678228126878E+00
    0.76214897821764315822E+00
    0.75892054689380750165E+00
    0.76519166368408608747E+00
    0.74399096951628229668E+00
    0.74859279385436705567E+00
    0.74762363213483917779E+00
    0.67230078122742642499E+00
    0.70929868363129655595E+00
    0.73224298287629874249E+00
    0.67449946418126693892E+00
    0.76651076061842016163E+00
    0.73398247918004388968E+00
    0.71496000277490612262E+00
    0.77060297369271846257E+00
    0.73822198876593581041E+00
    0.64784434995213757702E+00
    0.72092579245095966822E+00
    0.67588929720931156808E+00
    0.72824737177473575223E+00
    0.67825638912875207964E+00
    0.77135575918008258967E+00
    0.71864316954585294450E+00
    0.74208696436425936049E+00
    0.76743330569464585089E+00
    0.72735260935630663415E+00
    0.65004055286688344761E+00
    0.68903419195063597691E+00
    0.63360829916358063496E+00
    0.64983203836387160024E+00
    0.65900358751889498432E+00
    0.75709049739103706500E+00
    0.73138922525699190391E+00
    0.73788995026569581537E+00
    0.76272813822123031180E+00
    0.74077110534300127931E+00
    0.72020521287510086417E+00
    0.73873235581476537348E+00
    0.72814903862115754052E+00
    0.72057879865353668958E+00
    0.73294242489233840665E+00
    0.76605006002205833227E+00
    0.64658011850969965284E+00
    0.68568603652534854120E+00
    0.65341019166463010226E+00
    0.65377359788577904531E+00
    0.73784330097488515232E+00
    0.72920301886478777753E+00
    0.71695033941778607556E+00
    0.72964177520556849910E+00
    0.71964749557804219560E+00
    0.67086990262878087865E+00
    0.73731912209696259808E+00
    0.70713601685765647975E+00
    0.69706725661502966229E+00
    0.77619333812806778905E+00
    0.81267878319467212744E+00
    0.82579008236602080562E+00
    0.71904408675079978241E+00
    0.74644223400671749769E+00
    0.73891466621305768037E+00
    0.70250200915508653754E+00
    0.74236739362355086413E+00
    0.76084160040492210264E+00
    0.75861968373454768955E+00
    0.75000964524843560799E+00
    0.76312540737627676535E+00
    0.74813928572256871430E+00
    0.77132366858652334773E+00
    0.74575806546173661893E+00
    0.74625509447124682705E+00
    0.73195024747158721201E+00
    0.75318844349341351752E+00
    0.62436121639924591076E+00
    0.69575097252358308886E+00
    0.71093039858938444908E+00
    0.68684820637348353856E+00
    0.73422034999553775769E+00
    0.74495655797163218281E+00
    0.72961820217448702941E+00
    0.65790274218594968492E+00
    0.64537474305199105107E+00
    0.75496691905310076010E+00
    0.74885378438059424511E+00
    0.70695073570044408839E+00
    0.75192309057522699334E+00
    0.76137379698860596644E+00
    0.72953310975251950410E+00
    0.73998089638188380146E+00
    0.75146144318235408299E+00
    0.71104048370980954541E+00
    0.72184628816843066090E+00
    0.72255153131252469745E+00
    0.69454045542464459828E+00
    0.76073356093598798466E+00
    0.77134244058572232206E+00
    0.71650379071336012249E+00
    0.68847474455726298537E+00
    0.70578725883829918075E+00
    0.66434216542346935519E+00
    0.74416391861941844077E+00
    0.74973439073457748272E+00
    0.68551113928853335544E+00
    0.73307107144137961807E+00
    0.72459485336761075835E+00
    0.67652217479623999452E+00
    0.66496138475229571441E+00
    0.70009707912165863863E+00
    0.65461926921975588378E+00
    0.63508002031178012459E+00
    0.71918643544809413015E+00
    0.72701000715664387819E+00
    0.73432980377604850641E+00
    0.70316742069520321579E+00
    0.73749279428419012294E+00
    0.77254459639870443066E+00
    0.76426055045935237242E+00
    0.72863214950964128036E+00
    0.66829392680759791556E+00
    0.63100651924082762356E+00
    0.72891487671644206170E+00
    0.69104715896570834133E+00
    0.67108427999138786646E+00
    0.74273675436436414898E+00
    0.74384357537500311874E+00
    0.70624244726797247296E+00
    0.71744176260978820281E+00
    0.72210012796922751210E+00
    0.72414996874085568734E+00
    0.66691070086156400976E+00
    0.67171719696030285363E+00
    0.73909022246155808844E+00
    0.75255646967454437046E+00
    0.75453110760041097738E+00
    0.66813980256985761041E+00
    0.74987804470937280410E+00
    0.72650807274558903970E+00
    0.64889123516403457437E+00
    0.73059482412376519633E+00
    0.65274518458022878775E+00
    0.70837200916660592043E+00
    0.71816554951406630369E+00
    0.70060497487718675913E+00
    0.72148058971558903796E+00
    0.75790288842253017432E+00
    0.75581313189017496068E+00
    0.74937327974810696851E+00
    0.73559840551605948367E+00
    0.70771951285919176833E+00
    0.76652004644372595532E+00
    0.67492377076370790867E+00
    0.73166700093723757714E+00
    0.74252557359570636741E+00
    0.74736170799995582659E+00
    0.71753105505696490596E+00
    0.68164217359360512738E+00
    0.70947708795500263879E+00
    0.68860163455111467190E+00
    0.65074084255096287244E+00
    0.62004116098288908354E+00
    0.57159275188200897588E+00
    0.58353461018506080915E+00
    0.71644018485690919018E+00
    0.67241191774644271106E+00
    0.63416404202834175674E+00
    0.59821790983639333561E+00
    0.58414282090259994629E+00
    0.60974550797610804764E+00
    0.67474731437424817493E+00
    0.67446924313778666704E+00
    0.65202839340468332630E+00
    0.65830651468718681674E+00
    0.67682961408909192436E+00
    0.69275029504587226636E+00
    0.69338120976717165789E+00
    0.68737123243360187530E+00
    0.64225333138387585841E+00
    0.64748059231119448054E+00
    0.65229214101877008858E+00
    0.64941435746289277731E+00
    0.64326427923018170141E+00
    0.62714168566947559036E+00
    0.60856591839251605869E+00
    0.68752632885394571183E+00
    0.68114067919615683966E+00
    0.68168897773299852449E+00
    0.68107811089984726660E+00
    0.67343753775962689190E+00
    0.65195752224807379527E+00
    0.62916774290660926194E+00
