# vtk DataFile Version 3.0
LAPLACIEN  2D
ASCII
DATASET UNSTRUCTURED_GRID
 POINTS         391  float
  0.50371505999999999       0.50367786999999997        0.0000000000000000     
  0.29013556000000001       0.29014535000000002        0.0000000000000000     
  0.70165584999999997       0.71206597999999999        0.0000000000000000     
  0.70304188999999995       0.30176619999999998        0.0000000000000000     
  0.30920671999999999       0.71149227999999998        0.0000000000000000     
  0.79044983999999996       0.49884783999999999        0.0000000000000000     
  0.49102621000000002       0.20968644000000000        0.0000000000000000     
  0.49912957000000002       0.77208717000000004        0.0000000000000000     
  0.21724072999999999       0.48989389000000000        0.0000000000000000     
  0.83255933999999998       0.83046598000000005        0.0000000000000000     
  0.16646774000000000       0.17015694000000001        0.0000000000000000     
  0.83054514999999995       0.16736480000000001        0.0000000000000000     
  0.16953130999999999       0.83265739000000005        0.0000000000000000     
  0.42166445000000002       0.36345201999999999        0.0000000000000000     
  0.64462200999999997       0.56347807999999999        0.0000000000000000     
  0.35324633999999999       0.56311191000000005        0.0000000000000000     
  0.65456411000000003       0.84856860999999995        0.0000000000000000     
  0.35141477999999998       0.15563974000000000        0.0000000000000000     
  0.15290967000000000       0.35206625000000003        0.0000000000000000     
  0.82942241000000005       0.34936866000000000        0.0000000000000000     
  0.84390527000000004       0.64441694999999999        0.0000000000000000     
  0.63699174999999997       0.14284276000000001        0.0000000000000000     
  0.15620682999999999       0.64648446999999998        0.0000000000000000     
  0.36426062999999997       0.85756310999999996        0.0000000000000000     
  0.63489340999999999       0.40519052000000000        0.0000000000000000     
  0.52518872999999999       0.65957078000000002        0.0000000000000000     
  0.32158959999999998       0.42298103999999997        0.0000000000000000     
  0.58861710000000000       0.31711036999999997        0.0000000000000000     
  0.42078418000000001       0.69497151999999995        0.0000000000000000     
  0.48608786999999998       0.89334152000000000        0.0000000000000000     
   9.7084320000000002E-002  0.50000000000000000        0.0000000000000000     
  0.90291568000000000       0.50000000000000000        0.0000000000000000     
  0.51392453000000005       0.10668648999999999        0.0000000000000000     
  0.59792566999999996       0.73122754000000001        0.0000000000000000     
  0.74510058999999995       0.41124730999999998        0.0000000000000000     
  0.73212551999999997       0.90191560000000004        0.0000000000000000     
   9.7784830000000003E-002  0.26957329000000002        0.0000000000000000     
  0.26711221000000002        9.8671499999999995E-002   0.0000000000000000     
  0.90191560000000004       0.26787448000000003        0.0000000000000000     
  0.90118569000000004       0.73039821000000005        0.0000000000000000     
  0.73122947000000005        9.8017859999999998E-002   0.0000000000000000     
   9.8084400000000002E-002  0.73212551999999997        0.0000000000000000     
  0.26957329000000002       0.90221516999999996        0.0000000000000000     
  0.39283522999999998       0.25360379000000000        0.0000000000000000     
  0.74480864000000002       0.60495284999999999        0.0000000000000000     
  0.25505132000000003       0.60593640999999998        0.0000000000000000     
  0.52159297999999998       0.40671636000000000        0.0000000000000000     
  0.40768852000000000       0.47699891000000000        0.0000000000000000     
   9.1467049999999994E-002   9.1876959999999994E-002   0.0000000000000000     
  0.90842484999999995       0.90819225000000003        0.0000000000000000     
  0.90820104999999995        9.1566729999999999E-002   0.0000000000000000     
   9.1807449999999999E-002  0.90843574000000005        0.0000000000000000     
  0.27098960000000000       0.20527094000000001        0.0000000000000000     
  0.73457293999999995       0.79835387000000002        0.0000000000000000     
  0.79817773000000003       0.25713470999999999        0.0000000000000000     
  0.20747797000000001       0.72863946000000002        0.0000000000000000     
  0.20175195000000001       0.27583914999999998        0.0000000000000000     
  0.79603889000000005       0.72159035000000005        0.0000000000000000     
  0.71761666000000002       0.19748431999999999        0.0000000000000000     
  0.28462607000000001       0.80251899999999998        0.0000000000000000     
  0.69134598999999997       0.49261972999999998        0.0000000000000000     
  0.44720578999999999       0.58582935999999997        0.0000000000000000     
  0.24242269999999999       0.37228174000000003        0.0000000000000000     
  0.38265623999999998       0.93072131999999996        0.0000000000000000     
  0.60971754000000000       0.91988369000000003        0.0000000000000000     
   7.9163609999999995E-002  0.60979116000000000        0.0000000000000000     
  0.92010649000000000       0.61081183999999999        0.0000000000000000     
  0.61954008999999999        7.1530830000000004E-002   0.0000000000000000     
  0.91882012999999996       0.38917363999999999        0.0000000000000000     
  0.39086346000000000        8.0652249999999995E-002   0.0000000000000000     
   7.9183480000000001E-002  0.38966213000000000        0.0000000000000000     
  0.59114111999999996       0.49294315000000000        0.0000000000000000     
  0.63337980999999999       0.64485914000000000        0.0000000000000000     
  0.50012352000000004       0.29676539000000002        0.0000000000000000     
  0.82552601000000003       0.92753492000000004        0.0000000000000000     
  0.92774772999999999       0.82498556999999995        0.0000000000000000     
   7.1970870000000006E-002  0.17510291000000000        0.0000000000000000     
  0.17422821999999999        7.2635640000000001E-002   0.0000000000000000     
  0.82510813000000005        7.2134840000000006E-002   0.0000000000000000     
  0.92754665000000003       0.17446275999999999        0.0000000000000000     
  0.17501022999999999       0.92789951999999998        0.0000000000000000     
   7.2464680000000004E-002  0.82554053000000005        0.0000000000000000     
  0.30731587999999999       0.50885354999999999        0.0000000000000000     
  0.59033407999999998       0.22171178999999999        0.0000000000000000     
  0.40109191999999999       0.78725542000000004        0.0000000000000000     
  0.35420917000000002       0.63754104000000000        0.0000000000000000     
  0.15983976999999999       0.56665573000000002        0.0000000000000000     
  0.84108459999999996       0.56757886999999996        0.0000000000000000     
  0.83902096000000004       0.43344338999999998        0.0000000000000000     
  0.43230028999999998       0.16004268999999999        0.0000000000000000     
  0.57536027999999995       0.83041363999999995        0.0000000000000000     
  0.15771898000000001       0.42747892999999998        0.0000000000000000     
  0.34021692999999997       0.34221559000000001        0.0000000000000000     
  0.56002271999999997       0.57501117999999996        0.0000000000000000     
  0.65344329000000001       0.78147597999999996        0.0000000000000000     
   0.0000000000000000        0.0000000000000000        0.0000000000000000     
   1.0000000000000000        0.0000000000000000        0.0000000000000000     
   1.0000000000000000        1.0000000000000000        0.0000000000000000     
   0.0000000000000000        1.0000000000000000        0.0000000000000000     
  0.11111111000000000        0.0000000000000000        0.0000000000000000     
  0.22222222000000000        0.0000000000000000        0.0000000000000000     
  0.33333332999999998        0.0000000000000000        0.0000000000000000     
  0.44444444000000000        0.0000000000000000        0.0000000000000000     
  0.55555555999999995        0.0000000000000000        0.0000000000000000     
  0.66666667000000002        0.0000000000000000        0.0000000000000000     
  0.77777777999999997        0.0000000000000000        0.0000000000000000     
  0.88888889000000004        0.0000000000000000        0.0000000000000000     
   1.0000000000000000       0.11111111000000000        0.0000000000000000     
   1.0000000000000000       0.22222222000000000        0.0000000000000000     
   1.0000000000000000       0.33333332999999998        0.0000000000000000     
   1.0000000000000000       0.44444444000000000        0.0000000000000000     
   1.0000000000000000       0.55555555999999995        0.0000000000000000     
   1.0000000000000000       0.66666667000000002        0.0000000000000000     
   1.0000000000000000       0.77777777999999997        0.0000000000000000     
   1.0000000000000000       0.88888889000000004        0.0000000000000000     
  0.88888889000000004        1.0000000000000000        0.0000000000000000     
  0.77777777999999997        1.0000000000000000        0.0000000000000000     
  0.66666667000000002        1.0000000000000000        0.0000000000000000     
  0.55555555999999995        1.0000000000000000        0.0000000000000000     
  0.44444444000000000        1.0000000000000000        0.0000000000000000     
  0.33333332999999998        1.0000000000000000        0.0000000000000000     
  0.22222222000000000        1.0000000000000000        0.0000000000000000     
  0.11111111000000000        1.0000000000000000        0.0000000000000000     
   0.0000000000000000       0.11111111000000000        0.0000000000000000     
   0.0000000000000000       0.22222222000000000        0.0000000000000000     
[...]
 CELL_DATA         354
 SCALARS E float
 LOOKUP_TABLE default
    0.69982506795662802190E+00
    0.69176565979164039710E+00
    0.64327056121864178984E+00
    0.58873740900728632752E+00
    0.73874835451048381785E+00
    0.72807609829201891394E+00
    0.68476999006947270043E+00
    0.71086062810909178555E+00
    0.68393743087189129426E+00
    0.66945127844639129577E+00
    0.60684837811904079885E+00
    0.63317727253975086832E+00
    0.60405575126527155660E+00
    0.59808807240703265595E+00
    0.62235478855494985595E+00
    0.61190625296063227978E+00
    0.62932258419643605230E+00
    0.66676635021107011347E+00
    0.71970191756982948572E+00
    0.69551033914273574510E+00
    0.70273953494955054833E+00
    0.69696843438649669356E+00
    0.66665599063873115515E+00
    0.68143898473997166487E+00
    0.65587977543447539830E+00
    0.66622269464190431165E+00
    0.69186732634351066906E+00
    0.68367937943380674426E+00
    0.69118417901584683349E+00
    0.70480565882827761470E+00
    0.71561546963950750655E+00
    0.71661339839154580833E+00
    0.70089366336355884979E+00
    0.70070696162602408297E+00
    0.68916827754561704733E+00
    0.69724842353176763599E+00
    0.66156024756869769021E+00
    0.66958270879107928408E+00
    0.67471651917010522226E+00
    0.67136725969965072025E+00
    0.67700336713888198403E+00
    0.68189865090064172293E+00
    0.67759077330149874996E+00
    0.68184858230687028779E+00
    0.67507769622897173534E+00
    0.67099891271225398093E+00
    0.66132991819372366482E+00
    0.66654743741707567217E+00
    0.64967940948483238195E+00
    0.63992724307644177628E+00
    0.61924971547994855925E+00
    0.63150141299462159150E+00
    0.70779427049332210853E+00
    0.71211037480081484929E+00
    0.70152536286798183873E+00
    0.70558100545719115715E+00
    0.69783946230769045016E+00
    0.70268750580046157594E+00
    0.70671745033161059713E+00
    0.70785980130277792455E+00
    0.69963951543901392593E+00
    0.69950530625792750605E+00
    0.68335066135937172493E+00
    0.69582837520101215034E+00
    0.66609696504844506659E+00
    0.65606393239087035241E+00
    0.63056907438421827550E+00
    0.64457647523648797794E+00
    0.62746271713755930044E+00
    0.67224531783677410335E+00
    0.71781225298806716761E+00
    0.64287990559956598169E+00
    0.70346701256812727010E+00
    0.64569605681529596009E+00
    0.69047411332737362866E+00
    0.73184230712532027940E+00
    0.73465935257193859531E+00
    0.69248044099946226559E+00
    0.72508529903958018892E+00
    0.71601788481245198792E+00
    0.74430725456810797880E+00
    0.73233379006849730342E+00
    0.73555034958690201918E+00
    0.71982398714430018138E+00
    0.65755267776601178387E+00
    0.71554578931361012550E+00
    0.81134379905593234650E+00
    0.66482494540557024454E+00
    0.65669220823899732142E+00
    0.67483157682089878193E+00
    0.74505504534247313231E+00
    0.76747024087581561247E+00
    0.76066838435708716837E+00
    0.75231110034158144018E+00
    0.74723965239547673889E+00
    0.75404843869597992789E+00
    0.76948059624797815470E+00
    0.72800436279063096556E+00
    0.66626469042116154284E+00
    0.70777159545310630584E+00
    0.69992283229203566819E+00
    0.69419851134620447208E+00
    0.70664944283890962495E+00
    0.67600537796669712964E+00
    0.68038022378679363644E+00
    0.69685780983024814272E+00
    0.68842397184547654554E+00
    0.64704448793426572184E+00
    0.74257483349002839645E+00
    0.73847483190051366186E+00
    0.76495653671787777750E+00
    0.73957211572572889580E+00
    0.75601444198029610355E+00
    0.74515629439369690523E+00
    0.74390711609484083677E+00
    0.74891774335038419075E+00
    0.74771182560027094066E+00
    0.72435927516742459886E+00
    0.74964804843626742237E+00
    0.72428395561568181815E+00
    0.72840797253825984026E+00
    0.73377422876648767947E+00
    0.73872373266025037619E+00
    0.71590327836982725618E+00
    0.75859785531756929178E+00
    0.75611915668900897547E+00
    0.70637687776810953455E+00
    0.71898893793773921423E+00
    0.73568866284006628753E+00
    0.72949353894789825681E+00
    0.73436131692132344817E+00
    0.74948192702035054680E+00
    0.75162118551590384463E+00
    0.72284162779431826440E+00
    0.72174013965226824219E+00
    0.70605722445339680338E+00
    0.68140575148948423490E+00
    0.70214251079338929618E+00
    0.70793973522540387666E+00
    0.69368998801182335523E+00
    0.67481927807498998106E+00
    0.68167899620646299486E+00
    0.71215291712434380944E+00
    0.70426776513753563957E+00
    0.67889594074746972829E+00
    0.74187271304108348691E+00
    0.73719886167033532587E+00
    0.67726338945385022861E+00
    0.68229523851737017281E+00
    0.66294609291315986788E+00
    0.64957880831867176319E+00
    0.68833846806575049726E+00
    0.67176998192732184645E+00
    0.68755017815126762137E+00
    0.64322070257968200213E+00
    0.74309939150744530600E+00
    0.68577801840792296240E+00
    0.65502829096403525355E+00
    0.73518350486143169142E+00
    0.70373417219698053415E+00
    0.76765132479366871010E+00
    0.66626264899199671987E+00
    0.69695633979038285055E+00
    0.72015016321899083529E+00
    0.73672912278027902211E+00
    0.76276422780769914667E+00
    0.75929649918466346481E+00
    0.76584827252504084072E+00
    0.74393463422353622860E+00
    0.74859169572362405098E+00
    0.74862218166918237383E+00
    0.67257541046297797394E+00
    0.70967562337315881482E+00
    0.73335392053626580200E+00
    0.67493589049819924242E+00
    0.76698649983461431034E+00
    0.73393877886046499093E+00
    0.71437921502807699703E+00
    0.77117288479399470624E+00
    0.73791980555086855720E+00
    0.64778811371803302066E+00
    0.72164959381676896388E+00
    0.67626611163061078891E+00
    0.72896236394697389027E+00
    0.67797781546508151251E+00
    0.77196201334314196174E+00
    0.71801147325931502508E+00
    0.74186612742601498738E+00
    0.76801556790336644731E+00
    0.72697208355116316181E+00
    0.65141653528063314660E+00
    0.68994304770457948184E+00
    0.63456694357797771566E+00
    0.65056400020543647678E+00
    0.66134098912295158357E+00
    0.75758679213947044406E+00
    0.73078449637977815900E+00
    0.73759936370002510131E+00
    0.76325141317453770728E+00
    0.74044945822766405907E+00
    0.71979800692916362514E+00
    0.73898508537797757967E+00
    0.72773783099740929625E+00
    0.72029989032586727582E+00
    0.73267050977704106796E+00
    0.77180296800939729440E+00
    0.64916871238213080808E+00
    0.68973928168891240897E+00
    0.65462709650991279808E+00
    0.65611078320412596909E+00
    0.73791333685016313737E+00
    0.72906883136793054767E+00
    0.71712708143975267827E+00
    0.72994485330492830943E+00
    0.72018121623422093336E+00
    0.67072408625883794819E+00
    0.73813491967776423408E+00
    0.70707378195933012766E+00
    0.69750078905028412013E+00
    0.78183862043433627331E+00
    0.81754324654241883330E+00
    0.82981529161513045700E+00
    0.71870648712160545291E+00
    0.74643302252520016271E+00
    0.73876624727331563491E+00
    0.70166176606475993971E+00
    0.74263828562006728440E+00
    0.76135203999985889833E+00
    0.75902124711166107929E+00
    0.75011955390415085976E+00
    0.76361892563674693690E+00
    0.74806148615875311947E+00
    0.77191405452186401259E+00
    0.74584215494091132825E+00
    0.74693768218211720189E+00
    0.73206247871167129393E+00
    0.75419317624055848270E+00
    0.62423229232855925730E+00
    0.69641035235061399256E+00
    0.71422016015560174651E+00
    0.68823062209157970237E+00
    0.73429242048730092307E+00
    0.74480860804145287979E+00
    0.72906361802048835763E+00
    0.65837945123392771496E+00
    0.64450280118711422706E+00
    0.75537942866742813219E+00
    0.74940623295157404726E+00
    0.70647045027496113700E+00
    0.75222533773698407877E+00
    0.76176735327293321198E+00
    0.72887744783395325143E+00
    0.74059008752392474495E+00
    0.75261843861930444177E+00
    0.71007281468380856193E+00
    0.72273564352786623388E+00
    0.72282112675927268075E+00
    0.69397960235542810459E+00
    0.76106017686465599059E+00
    0.77205933390923164872E+00
    0.71574280162083692147E+00
    0.68947353785101606061E+00
    0.70684226132188288094E+00
    0.66342792070586620312E+00
    0.74441719444050968857E+00
    0.75030500479462913788E+00
    0.68485603962913099707E+00
    0.73319282897274939970E+00
    0.72486070637518218440E+00
    0.67589619747835205654E+00
    0.66442715534366902919E+00
    0.70334440596419278702E+00
    0.65562599506552476925E+00
    0.63479561756252766980E+00
    0.71850286830891418877E+00
    0.72800606644449583627E+00
    0.73498492795566738867E+00
    0.70256923979118190982E+00
    0.73724367054854300640E+00
    0.77358242754352346537E+00
    0.76503865174639262836E+00
    0.72816301220100310143E+00
    0.66975655515165155585E+00
    0.63273873068069330650E+00
    0.73393526861830238328E+00
    0.69105683177322596578E+00
    0.67006521498185356300E+00
    0.74242072258226277093E+00
    0.74353511197290522716E+00
    0.70603350404494280568E+00
    0.71732075393532679364E+00
    0.72183887078700048612E+00
    0.72377226749716194742E+00
    0.66676079903239682256E+00
    0.67157190252095477767E+00
    0.73955104918598824071E+00
    0.75261360976560276459E+00
    0.75457900221880302993E+00
    0.66945441533554461699E+00
    0.75012662604733704175E+00
    0.72670422249588872976E+00
    0.65328820179380620026E+00
    0.73015812712278727048E+00
    0.65310669500480733607E+00
    0.70773717312508432897E+00
    0.71892186476029751319E+00
    0.69968250574000723230E+00
    0.72218422204238719164E+00
    0.75836412439363132254E+00
    0.75602128317371197763E+00
    0.74958479212005646453E+00
    0.73631132679685129538E+00
    0.70867690658967030792E+00
    0.76703629890072144715E+00
    0.67512519544988836007E+00
    0.73242679655761766533E+00
    0.74792431290603511584E+00
    0.74726998499424923672E+00
    0.71681264518526033314E+00
    0.67983190906559209932E+00
    0.70808620835752889011E+00
    0.68637705612545751865E+00
    0.65007999083340162194E+00
    0.61866946188094973369E+00
    0.57052485558543319932E+00
    0.58271112588948570377E+00
    0.71523603874129937363E+00
    0.67003283204763908198E+00
    0.63089420992431144430E+00
    0.59430606087390125403E+00
    0.57978704018735349734E+00
    0.60601238334810014763E+00
    0.67253124896938842880E+00
    0.67185845999757176639E+00
    0.64871593763742485539E+00
    0.65516840810373633275E+00
    0.67426722986381060210E+00
    0.69068137810546437194E+00
    0.69179286641824500048E+00
    0.68645661256565537744E+00
    0.64078548056113393550E+00
    0.64561445534712236238E+00
    0.65037634985351888695E+00
    0.64742848998238833325E+00
    0.64146001802267771374E+00
    0.62546808978970669379E+00
    0.60735978501007303887E+00
    0.68559564967160047111E+00
    0.67884640222548986443E+00
    0.67947756486635024764E+00
    0.67908749227595166520E+00
    0.67167926663912669305E+00
    0.65037864883380480663E+00
    0.62816095766158297486E+00
