# vtk DataFile Version 3.0
LAPLACIEN  2D
ASCII
DATASET UNSTRUCTURED_GRID
 POINTS         391  float
  0.50371505999999999       0.50367786999999997        0.0000000000000000     
  0.29013556000000001       0.29014535000000002        0.0000000000000000     
  0.70165584999999997       0.71206597999999999        0.0000000000000000     
  0.70304188999999995       0.30176619999999998        0.0000000000000000     
  0.30920671999999999       0.71149227999999998        0.0000000000000000     
  0.79044983999999996       0.49884783999999999        0.0000000000000000     
  0.49102621000000002       0.20968644000000000        0.0000000000000000     
  0.49912957000000002       0.77208717000000004        0.0000000000000000     
  0.21724072999999999       0.48989389000000000        0.0000000000000000     
  0.83255933999999998       0.83046598000000005        0.0000000000000000     
  0.16646774000000000       0.17015694000000001        0.0000000000000000     
  0.83054514999999995       0.16736480000000001        0.0000000000000000     
  0.16953130999999999       0.83265739000000005        0.0000000000000000     
  0.42166445000000002       0.36345201999999999        0.0000000000000000     
  0.64462200999999997       0.56347807999999999        0.0000000000000000     
  0.35324633999999999       0.56311191000000005        0.0000000000000000     
  0.65456411000000003       0.84856860999999995        0.0000000000000000     
  0.35141477999999998       0.15563974000000000        0.0000000000000000     
  0.15290967000000000       0.35206625000000003        0.0000000000000000     
  0.82942241000000005       0.34936866000000000        0.0000000000000000     
  0.84390527000000004       0.64441694999999999        0.0000000000000000     
  0.63699174999999997       0.14284276000000001        0.0000000000000000     
  0.15620682999999999       0.64648446999999998        0.0000000000000000     
  0.36426062999999997       0.85756310999999996        0.0000000000000000     
  0.63489340999999999       0.40519052000000000        0.0000000000000000     
  0.52518872999999999       0.65957078000000002        0.0000000000000000     
  0.32158959999999998       0.42298103999999997        0.0000000000000000     
  0.58861710000000000       0.31711036999999997        0.0000000000000000     
  0.42078418000000001       0.69497151999999995        0.0000000000000000     
  0.48608786999999998       0.89334152000000000        0.0000000000000000     
   9.7084320000000002E-002  0.50000000000000000        0.0000000000000000     
  0.90291568000000000       0.50000000000000000        0.0000000000000000     
  0.51392453000000005       0.10668648999999999        0.0000000000000000     
  0.59792566999999996       0.73122754000000001        0.0000000000000000     
  0.74510058999999995       0.41124730999999998        0.0000000000000000     
  0.73212551999999997       0.90191560000000004        0.0000000000000000     
   9.7784830000000003E-002  0.26957329000000002        0.0000000000000000     
  0.26711221000000002        9.8671499999999995E-002   0.0000000000000000     
  0.90191560000000004       0.26787448000000003        0.0000000000000000     
  0.90118569000000004       0.73039821000000005        0.0000000000000000     
  0.73122947000000005        9.8017859999999998E-002   0.0000000000000000     
   9.8084400000000002E-002  0.73212551999999997        0.0000000000000000     
  0.26957329000000002       0.90221516999999996        0.0000000000000000     
  0.39283522999999998       0.25360379000000000        0.0000000000000000     
  0.74480864000000002       0.60495284999999999        0.0000000000000000     
  0.25505132000000003       0.60593640999999998        0.0000000000000000     
  0.52159297999999998       0.40671636000000000        0.0000000000000000     
  0.40768852000000000       0.47699891000000000        0.0000000000000000     
   9.1467049999999994E-002   9.1876959999999994E-002   0.0000000000000000     
  0.90842484999999995       0.90819225000000003        0.0000000000000000     
  0.90820104999999995        9.1566729999999999E-002   0.0000000000000000     
   9.1807449999999999E-002  0.90843574000000005        0.0000000000000000     
  0.27098960000000000       0.20527094000000001        0.0000000000000000     
  0.73457293999999995       0.79835387000000002        0.0000000000000000     
  0.79817773000000003       0.25713470999999999        0.0000000000000000     
  0.20747797000000001       0.72863946000000002        0.0000000000000000     
  0.20175195000000001       0.27583914999999998        0.0000000000000000     
  0.79603889000000005       0.72159035000000005        0.0000000000000000     
  0.71761666000000002       0.19748431999999999        0.0000000000000000     
  0.28462607000000001       0.80251899999999998        0.0000000000000000     
  0.69134598999999997       0.49261972999999998        0.0000000000000000     
  0.44720578999999999       0.58582935999999997        0.0000000000000000     
  0.24242269999999999       0.37228174000000003        0.0000000000000000     
  0.38265623999999998       0.93072131999999996        0.0000000000000000     
  0.60971754000000000       0.91988369000000003        0.0000000000000000     
   7.9163609999999995E-002  0.60979116000000000        0.0000000000000000     
  0.92010649000000000       0.61081183999999999        0.0000000000000000     
  0.61954008999999999        7.1530830000000004E-002   0.0000000000000000     
  0.91882012999999996       0.38917363999999999        0.0000000000000000     
  0.39086346000000000        8.0652249999999995E-002   0.0000000000000000     
   7.9183480000000001E-002  0.38966213000000000        0.0000000000000000     
  0.59114111999999996       0.49294315000000000        0.0000000000000000     
  0.63337980999999999       0.64485914000000000        0.0000000000000000     
  0.50012352000000004       0.29676539000000002        0.0000000000000000     
  0.82552601000000003       0.92753492000000004        0.0000000000000000     
  0.92774772999999999       0.82498556999999995        0.0000000000000000     
   7.1970870000000006E-002  0.17510291000000000        0.0000000000000000     
  0.17422821999999999        7.2635640000000001E-002   0.0000000000000000     
  0.82510813000000005        7.2134840000000006E-002   0.0000000000000000     
  0.92754665000000003       0.17446275999999999        0.0000000000000000     
  0.17501022999999999       0.92789951999999998        0.0000000000000000     
   7.2464680000000004E-002  0.82554053000000005        0.0000000000000000     
  0.30731587999999999       0.50885354999999999        0.0000000000000000     
  0.59033407999999998       0.22171178999999999        0.0000000000000000     
  0.40109191999999999       0.78725542000000004        0.0000000000000000     
  0.35420917000000002       0.63754104000000000        0.0000000000000000     
  0.15983976999999999       0.56665573000000002        0.0000000000000000     
  0.84108459999999996       0.56757886999999996        0.0000000000000000     
  0.83902096000000004       0.43344338999999998        0.0000000000000000     
  0.43230028999999998       0.16004268999999999        0.0000000000000000     
  0.57536027999999995       0.83041363999999995        0.0000000000000000     
  0.15771898000000001       0.42747892999999998        0.0000000000000000     
  0.34021692999999997       0.34221559000000001        0.0000000000000000     
  0.56002271999999997       0.57501117999999996        0.0000000000000000     
  0.65344329000000001       0.78147597999999996        0.0000000000000000     
   0.0000000000000000        0.0000000000000000        0.0000000000000000     
   1.0000000000000000        0.0000000000000000        0.0000000000000000     
   1.0000000000000000        1.0000000000000000        0.0000000000000000     
   0.0000000000000000        1.0000000000000000        0.0000000000000000     
  0.11111111000000000        0.0000000000000000        0.0000000000000000     
  0.22222222000000000        0.0000000000000000        0.0000000000000000     
  0.33333332999999998        0.0000000000000000        0.0000000000000000     
  0.44444444000000000        0.0000000000000000        0.0000000000000000     
  0.55555555999999995        0.0000000000000000        0.0000000000000000     
  0.66666667000000002        0.0000000000000000        0.0000000000000000     
  0.77777777999999997        0.0000000000000000        0.0000000000000000     
  0.88888889000000004        0.0000000000000000        0.0000000000000000     
   1.0000000000000000       0.11111111000000000        0.0000000000000000     
   1.0000000000000000       0.22222222000000000        0.0000000000000000     
   1.0000000000000000       0.33333332999999998        0.0000000000000000     
   1.0000000000000000       0.44444444000000000        0.0000000000000000     
   1.0000000000000000       0.55555555999999995        0.0000000000000000     
   1.0000000000000000       0.66666667000000002        0.0000000000000000     
   1.0000000000000000       0.77777777999999997        0.0000000000000000     
   1.0000000000000000       0.88888889000000004        0.0000000000000000     
  0.88888889000000004        1.0000000000000000        0.0000000000000000     
  0.77777777999999997        1.0000000000000000        0.0000000000000000     
  0.66666667000000002        1.0000000000000000        0.0000000000000000     
  0.55555555999999995        1.0000000000000000        0.0000000000000000     
  0.44444444000000000        1.0000000000000000        0.0000000000000000     
  0.33333332999999998        1.0000000000000000        0.0000000000000000     
  0.22222222000000000        1.0000000000000000        0.0000000000000000     
  0.11111111000000000        1.0000000000000000        0.0000000000000000     
   0.0000000000000000       0.11111111000000000        0.0000000000000000     
   0.0000000000000000       0.22222222000000000        0.0000000000000000     
[...]
 CELL_DATA         354
 SCALARS E float
 LOOKUP_TABLE default
    0.69891704552494005043E+00
    0.69051007729989466455E+00
    0.64253708833091183195E+00
    0.58805403721324533972E+00
    0.73850155739598233318E+00
    0.72753272969424698235E+00
    0.68348991606674203148E+00
    0.70990093985118285502E+00
    0.68306000105193120930E+00
    0.66843616881330136792E+00
    0.60519994338573512849E+00
    0.63170119667291269039E+00
    0.60224737918523307822E+00
    0.59603315632209796782E+00
    0.62095912753311899301E+00
    0.61032042454458346192E+00
    0.62757150692056262731E+00
    0.66541837616350307805E+00
    0.71917537076731408163E+00
    0.69459847903477300868E+00
    0.70172314391126566768E+00
    0.69587922446740146931E+00
    0.66507609640827647368E+00
    0.68008118438510689607E+00
    0.65428288907831610999E+00
    0.66478570684951487912E+00
    0.69084243659935040682E+00
    0.68251566553075870836E+00
    0.69001524480799381056E+00
    0.70379937532097958108E+00
    0.71499123421311949755E+00
    0.71591082952347750989E+00
    0.69999472039133969758E+00
    0.70000044519139370536E+00
    0.68894400877338979328E+00
    0.69685614933362982626E+00
    0.66094211338560515667E+00
    0.66898819997553859995E+00
    0.67381809155224514640E+00
    0.67059984391817195615E+00
    0.67617700672888081392E+00
    0.68115344142343303702E+00
    0.67663672552215259337E+00
    0.68103081517519359345E+00
    0.67402359986276461079E+00
    0.67003463189635703579E+00
    0.66055769563998578686E+00
    0.66575033517681736495E+00
    0.64883292704020933961E+00
    0.63923447050314252671E+00
    0.61879343780552531484E+00
    0.63101393657611337673E+00
    0.70693009479164914399E+00
    0.71130010282123412590E+00
    0.70039443005754509208E+00
    0.70457190082883069948E+00
    0.69678683816087017000E+00
    0.70175507394379255111E+00
    0.70589076857074029014E+00
    0.70701956154291178969E+00
    0.69871669308328820946E+00
    0.69869528742095876606E+00
    0.68266781393041342518E+00
    0.69517721396011522561E+00
    0.66526146066748137464E+00
    0.65541369813901084740E+00
    0.63025193129573287010E+00
    0.64416413834999031174E+00
    0.62775017816377398638E+00
    0.67252350049936726606E+00
    0.71838046853694392802E+00
    0.64290479067231531829E+00
    0.70396648310421938710E+00
    0.64507762737637286410E+00
    0.69015344739310546807E+00
    0.73216565102821506983E+00
    0.73518184331909919305E+00
    0.69256068241753254711E+00
    0.72472906873497855429E+00
    0.71577889932300009512E+00
    0.74415220826975037038E+00
    0.73200518114144452753E+00
    0.73568650543580682566E+00
    0.71928234918638589424E+00
    0.65822248746283607002E+00
    0.71865016409590687374E+00
    0.81449519442200501995E+00
    0.66682004593856913921E+00
    0.65761629360292328528E+00
    0.67777987274748252577E+00
    0.74832095293908174050E+00
    0.76783548232805898248E+00
    0.76099588704361409430E+00
    0.75245777400159008508E+00
    0.74729593819103867780E+00
    0.75420619361414020787E+00
    0.76992632202276090059E+00
    0.72826221348361452890E+00
    0.66611494459569930982E+00
    0.70788768975776239500E+00
    0.70032385999042068292E+00
    0.69396454596903711654E+00
    0.70673219601253012279E+00
    0.67754726088963401764E+00
    0.68200785908720318318E+00
    0.70048641063312877542E+00
    0.69200766770968258346E+00
    0.64815932358486816334E+00
    0.74261021528121262669E+00
    0.73835040509860916380E+00
    0.76526753375695510950E+00
    0.73942636230365299532E+00
    0.75610057494295612734E+00
    0.74509076341263491550E+00
    0.74433523099654563815E+00
    0.74891543508177604860E+00
    0.74793776146569379559E+00
    0.72435959196657628834E+00
    0.75003261750119365470E+00
    0.72399845425867304094E+00
    0.72822711184006028162E+00
    0.73374858218759608786E+00
    0.73863530017445033771E+00
    0.71566906794770057676E+00
    0.75883587371567740032E+00
    0.75629352257234050416E+00
    0.70599325914834176743E+00
    0.71867362624594943732E+00
    0.73552732876907334081E+00
    0.72942125438400451376E+00
    0.73399094972539991044E+00
    0.74986766681034922044E+00
    0.75191802066034330032E+00
    0.72233955592807130852E+00
    0.72128405437130660438E+00
    0.70625237174906885240E+00
    0.68148998915347436256E+00
    0.70175550789584406619E+00
    0.70851963175711440979E+00
    0.69431247003528773210E+00
    0.67436898739985140505E+00
    0.68124121778765489577E+00
    0.71201934795955690305E+00
    0.70408510565068360698E+00
    0.67866849233871140434E+00
    0.74208855718744271002E+00
    0.73736348551769248516E+00
    0.67687677297611892335E+00
    0.68192446898551517531E+00
    0.66311442815652221761E+00
    0.65041488075181597139E+00
    0.69079173741224286776E+00
    0.67250523733486511357E+00
    0.69031015721301014487E+00
    0.64333524332270064505E+00
    0.74384733223019550152E+00
    0.68604083336465304654E+00
    0.65491383618551801682E+00
    0.73579461115876221289E+00
    0.70403442732379195590E+00
    0.76826130518783364298E+00
    0.66556539255289259849E+00
    0.69664055850726347430E+00
    0.71999002999359296151E+00
    0.73685656879311922651E+00
    0.76316805120523434347E+00
    0.75954496504310098359E+00
    0.76627756357450405034E+00
    0.74389889341206272277E+00
    0.74859055318905420862E+00
    0.74927356105877229719E+00
    0.67276604397500272547E+00
    0.70992559686278911002E+00
    0.73408270144136977819E+00
    0.67523657467897280071E+00
    0.76729559505258637664E+00
    0.73391418095519811438E+00
    0.71399814226325775124E+00
    0.77154356323736883461E+00
    0.73771663493337658046E+00
    0.64777531541835764450E+00
    0.72212433384367569200E+00
    0.67652171599698518456E+00
    0.72943063764847260178E+00
    0.67779728034671116177E+00
    0.77235710428472692524E+00
    0.71759136727377803577E+00
    0.74171660343973544460E+00
    0.76839635558151841987E+00
    0.72671968097591510549E+00
    0.65235880870368789797E+00
    0.69053618706095165614E+00
    0.63524967433104739811E+00
    0.65107596363010822316E+00
    0.66292605063898790707E+00
    0.75791015094731362112E+00
    0.73038394593463251692E+00
    0.73740589763070429896E+00
    0.76359363181965411727E+00
    0.74023533825653753393E+00
    0.71953488660105113794E+00
    0.73914763397280336399E+00
    0.72746476192307796271E+00
    0.72011562793678207672E+00
    0.73249354212925943397E+00
    0.77553679859132174101E+00
    0.65093898152932339052E+00
    0.69244095158979468430E+00
    0.65546268033333154879E+00
    0.65770412469572914205E+00
    0.73796019446513816398E+00
    0.72898426316539288727E+00
    0.71725204140281739740E+00
    0.73014947198625157476E+00
    0.72054134522987789424E+00
    0.67064146487763465210E+00
    0.73867011651148684059E+00
    0.70703320089940069337E+00
    0.69778763672193466761E+00
    0.78549229348793148109E+00
    0.82066063886800078020E+00
    0.83238323425326699034E+00
    0.71848279486787136605E+00
    0.74642766597490861624E+00
    0.73866424160453969527E+00
    0.70110581857037634901E+00
    0.74281762250350558130E+00
    0.76168862280920346386E+00
    0.75928424194899835076E+00
    0.75019017258608577947E+00
    0.76394602375470666011E+00
    0.74800876995921483648E+00
    0.77229925243647445932E+00
    0.74589581451337272355E+00
    0.74738993956676402775E+00
    0.73213921633839440517E+00
    0.75484870889229405133E+00
    0.62418477994509768969E+00
    0.69684738890804709399E+00
    0.71640320058377293666E+00
    0.68915669903900234061E+00
    0.73434343584570704877E+00
    0.74470920870692114413E+00
    0.72869741388926978498E+00
    0.65871648534216320492E+00
    0.64393145534812878950E+00
    0.75565221280660554992E+00
    0.74977107627675332324E+00
    0.70615379119567489585E+00
    0.75242522146848112019E+00
    0.76202708117590522985E+00
    0.72844373615053348292E+00
    0.74099222134362174863E+00
    0.75337997648287513552E+00
    0.70943415003143028841E+00
    0.72331604547749228651E+00
    0.72300116571610217875E+00
    0.69361840418896936189E+00
    0.76127373902022299479E+00
    0.77253217512604410722E+00
    0.71523887377742734195E+00
    0.69013229971998246715E+00
    0.70753454929019943265E+00
    0.66283194678369639075E+00
    0.74458270909684343142E+00
    0.75068222387344241131E+00
    0.68442176477329919049E+00
    0.73327177138736787665E+00
    0.72503493942240726522E+00
    0.67548065001726809164E+00
    0.66407356555156049627E+00
    0.70550662887502446630E+00
    0.65632151819312656293E+00
    0.63463111339955768919E+00
    0.71804948974297477804E+00
    0.72865967976867840328E+00
    0.73542532377020730650E+00
    0.70217922591610104632E+00
    0.73708217096895101150E+00
    0.77426077318473385258E+00
    0.76555470490814514495E+00
    0.72785965717731970770E+00
    0.67074946886951569702E+00
    0.63394085442141934195E+00
    0.73722458422837444658E+00
    0.69106464004516698907E+00
    0.66938974383280325231E+00
    0.74220682171799512439E+00
    0.74332667272128649660E+00
    0.70589211242552396541E+00
    0.71723773809359847586E+00
    0.72166184664843169294E+00
    0.72351744613504886949E+00
    0.66665891274042232695E+00
    0.67147311917942653636E+00
    0.73985315285808617158E+00
    0.75264937180236690661E+00
    0.75460671471356677298E+00
    0.67036254642118975333E+00
    0.75029149913309522990E+00
    0.72684023839631883845E+00
    0.65624332483543124095E+00
    0.72987250265394099102E+00
    0.65335996912745930576E+00
    0.70731596850005939991E+00
    0.71942490493882627067E+00
    0.69908028073616312881E+00
    0.72264611166177161738E+00
    0.75866692754735098880E+00
    0.75615566920465182577E+00
    0.74972177443815890552E+00
    0.73677838372025206137E+00
    0.70930615927531737164E+00
    0.76737428610202695900E+00
    0.67525815992464210957E+00
    0.73292743491715206527E+00
    0.75144454293681839374E+00
    0.74720836081816699448E+00
    0.71633252004631997600E+00
    0.67862647808580700559E+00
    0.70715872271720980891E+00
    0.68489472613451307659E+00
    0.64963877445490103568E+00
    0.61775619707311713036E+00
    0.56981354657938654285E+00
    0.58216211962541164482E+00
    0.71443241069971097357E+00
    0.66845488188063084678E+00
    0.62871742459495016941E+00
    0.59170135429820114314E+00
    0.57688724677637304161E+00
    0.60353111467932063494E+00
    0.67105375407863188109E+00
    0.67011859628779102405E+00
    0.64650934108809754441E+00
    0.65307864943820437276E+00
    0.67256268017394860159E+00
    0.68930316976777339377E+00
    0.69073794353297912618E+00
    0.68584642049844135592E+00
    0.63980760126929403508E+00
    0.64437219764136099975E+00
    0.64910062500665832719E+00
    0.64610597634197974859E+00
    0.64025736949701184120E+00
    0.62435384473628263713E+00
    0.60655609348589645258E+00
    0.68430909964841624138E+00
    0.67731829391471731761E+00
    0.67800512969740156510E+00
    0.67776256181338556672E+00
    0.67050794609896635645E+00
    0.64932845180549958464E+00
    0.62748987599927286141E+00
