# vtk DataFile Version 3.0
LAPLACIEN  2D
ASCII
DATASET UNSTRUCTURED_GRID
 POINTS         391  float
  0.50371505999999999       0.50367786999999997        0.0000000000000000     
  0.29013556000000001       0.29014535000000002        0.0000000000000000     
  0.70165584999999997       0.71206597999999999        0.0000000000000000     
  0.70304188999999995       0.30176619999999998        0.0000000000000000     
  0.30920671999999999       0.71149227999999998        0.0000000000000000     
  0.79044983999999996       0.49884783999999999        0.0000000000000000     
  0.49102621000000002       0.20968644000000000        0.0000000000000000     
  0.49912957000000002       0.77208717000000004        0.0000000000000000     
  0.21724072999999999       0.48989389000000000        0.0000000000000000     
  0.83255933999999998       0.83046598000000005        0.0000000000000000     
  0.16646774000000000       0.17015694000000001        0.0000000000000000     
  0.83054514999999995       0.16736480000000001        0.0000000000000000     
  0.16953130999999999       0.83265739000000005        0.0000000000000000     
  0.42166445000000002       0.36345201999999999        0.0000000000000000     
  0.64462200999999997       0.56347807999999999        0.0000000000000000     
  0.35324633999999999       0.56311191000000005        0.0000000000000000     
  0.65456411000000003       0.84856860999999995        0.0000000000000000     
  0.35141477999999998       0.15563974000000000        0.0000000000000000     
  0.15290967000000000       0.35206625000000003        0.0000000000000000     
  0.82942241000000005       0.34936866000000000        0.0000000000000000     
  0.84390527000000004       0.64441694999999999        0.0000000000000000     
  0.63699174999999997       0.14284276000000001        0.0000000000000000     
  0.15620682999999999       0.64648446999999998        0.0000000000000000     
  0.36426062999999997       0.85756310999999996        0.0000000000000000     
  0.63489340999999999       0.40519052000000000        0.0000000000000000     
  0.52518872999999999       0.65957078000000002        0.0000000000000000     
  0.32158959999999998       0.42298103999999997        0.0000000000000000     
  0.58861710000000000       0.31711036999999997        0.0000000000000000     
  0.42078418000000001       0.69497151999999995        0.0000000000000000     
  0.48608786999999998       0.89334152000000000        0.0000000000000000     
   9.7084320000000002E-002  0.50000000000000000        0.0000000000000000     
  0.90291568000000000       0.50000000000000000        0.0000000000000000     
  0.51392453000000005       0.10668648999999999        0.0000000000000000     
  0.59792566999999996       0.73122754000000001        0.0000000000000000     
  0.74510058999999995       0.41124730999999998        0.0000000000000000     
  0.73212551999999997       0.90191560000000004        0.0000000000000000     
   9.7784830000000003E-002  0.26957329000000002        0.0000000000000000     
  0.26711221000000002        9.8671499999999995E-002   0.0000000000000000     
  0.90191560000000004       0.26787448000000003        0.0000000000000000     
  0.90118569000000004       0.73039821000000005        0.0000000000000000     
  0.73122947000000005        9.8017859999999998E-002   0.0000000000000000     
   9.8084400000000002E-002  0.73212551999999997        0.0000000000000000     
  0.26957329000000002       0.90221516999999996        0.0000000000000000     
  0.39283522999999998       0.25360379000000000        0.0000000000000000     
  0.74480864000000002       0.60495284999999999        0.0000000000000000     
  0.25505132000000003       0.60593640999999998        0.0000000000000000     
  0.52159297999999998       0.40671636000000000        0.0000000000000000     
  0.40768852000000000       0.47699891000000000        0.0000000000000000     
   9.1467049999999994E-002   9.1876959999999994E-002   0.0000000000000000     
  0.90842484999999995       0.90819225000000003        0.0000000000000000     
  0.90820104999999995        9.1566729999999999E-002   0.0000000000000000     
   9.1807449999999999E-002  0.90843574000000005        0.0000000000000000     
  0.27098960000000000       0.20527094000000001        0.0000000000000000     
  0.73457293999999995       0.79835387000000002        0.0000000000000000     
  0.79817773000000003       0.25713470999999999        0.0000000000000000     
  0.20747797000000001       0.72863946000000002        0.0000000000000000     
  0.20175195000000001       0.27583914999999998        0.0000000000000000     
  0.79603889000000005       0.72159035000000005        0.0000000000000000     
  0.71761666000000002       0.19748431999999999        0.0000000000000000     
  0.28462607000000001       0.80251899999999998        0.0000000000000000     
  0.69134598999999997       0.49261972999999998        0.0000000000000000     
  0.44720578999999999       0.58582935999999997        0.0000000000000000     
  0.24242269999999999       0.37228174000000003        0.0000000000000000     
  0.38265623999999998       0.93072131999999996        0.0000000000000000     
  0.60971754000000000       0.91988369000000003        0.0000000000000000     
   7.9163609999999995E-002  0.60979116000000000        0.0000000000000000     
  0.92010649000000000       0.61081183999999999        0.0000000000000000     
  0.61954008999999999        7.1530830000000004E-002   0.0000000000000000     
  0.91882012999999996       0.38917363999999999        0.0000000000000000     
  0.39086346000000000        8.0652249999999995E-002   0.0000000000000000     
   7.9183480000000001E-002  0.38966213000000000        0.0000000000000000     
  0.59114111999999996       0.49294315000000000        0.0000000000000000     
  0.63337980999999999       0.64485914000000000        0.0000000000000000     
  0.50012352000000004       0.29676539000000002        0.0000000000000000     
  0.82552601000000003       0.92753492000000004        0.0000000000000000     
  0.92774772999999999       0.82498556999999995        0.0000000000000000     
   7.1970870000000006E-002  0.17510291000000000        0.0000000000000000     
  0.17422821999999999        7.2635640000000001E-002   0.0000000000000000     
  0.82510813000000005        7.2134840000000006E-002   0.0000000000000000     
  0.92754665000000003       0.17446275999999999        0.0000000000000000     
  0.17501022999999999       0.92789951999999998        0.0000000000000000     
   7.2464680000000004E-002  0.82554053000000005        0.0000000000000000     
  0.30731587999999999       0.50885354999999999        0.0000000000000000     
  0.59033407999999998       0.22171178999999999        0.0000000000000000     
  0.40109191999999999       0.78725542000000004        0.0000000000000000     
  0.35420917000000002       0.63754104000000000        0.0000000000000000     
  0.15983976999999999       0.56665573000000002        0.0000000000000000     
  0.84108459999999996       0.56757886999999996        0.0000000000000000     
  0.83902096000000004       0.43344338999999998        0.0000000000000000     
  0.43230028999999998       0.16004268999999999        0.0000000000000000     
  0.57536027999999995       0.83041363999999995        0.0000000000000000     
  0.15771898000000001       0.42747892999999998        0.0000000000000000     
  0.34021692999999997       0.34221559000000001        0.0000000000000000     
  0.56002271999999997       0.57501117999999996        0.0000000000000000     
  0.65344329000000001       0.78147597999999996        0.0000000000000000     
   0.0000000000000000        0.0000000000000000        0.0000000000000000     
   1.0000000000000000        0.0000000000000000        0.0000000000000000     
   1.0000000000000000        1.0000000000000000        0.0000000000000000     
   0.0000000000000000        1.0000000000000000        0.0000000000000000     
  0.11111111000000000        0.0000000000000000        0.0000000000000000     
  0.22222222000000000        0.0000000000000000        0.0000000000000000     
  0.33333332999999998        0.0000000000000000        0.0000000000000000     
  0.44444444000000000        0.0000000000000000        0.0000000000000000     
  0.55555555999999995        0.0000000000000000        0.0000000000000000     
  0.66666667000000002        0.0000000000000000        0.0000000000000000     
  0.77777777999999997        0.0000000000000000        0.0000000000000000     
  0.88888889000000004        0.0000000000000000        0.0000000000000000     
   1.0000000000000000       0.11111111000000000        0.0000000000000000     
   1.0000000000000000       0.22222222000000000        0.0000000000000000     
   1.0000000000000000       0.33333332999999998        0.0000000000000000     
   1.0000000000000000       0.44444444000000000        0.0000000000000000     
   1.0000000000000000       0.55555555999999995        0.0000000000000000     
   1.0000000000000000       0.66666667000000002        0.0000000000000000     
   1.0000000000000000       0.77777777999999997        0.0000000000000000     
   1.0000000000000000       0.88888889000000004        0.0000000000000000     
  0.88888889000000004        1.0000000000000000        0.0000000000000000     
  0.77777777999999997        1.0000000000000000        0.0000000000000000     
  0.66666667000000002        1.0000000000000000        0.0000000000000000     
  0.55555555999999995        1.0000000000000000        0.0000000000000000     
  0.44444444000000000        1.0000000000000000        0.0000000000000000     
  0.33333332999999998        1.0000000000000000        0.0000000000000000     
  0.22222222000000000        1.0000000000000000        0.0000000000000000     
  0.11111111000000000        1.0000000000000000        0.0000000000000000     
   0.0000000000000000       0.11111111000000000        0.0000000000000000     
   0.0000000000000000       0.22222222000000000        0.0000000000000000     
[...]
 CELL_DATA         354
 SCALARS E float
 LOOKUP_TABLE default
    0.68065593529455403754E+00
    0.61933760677179472420E+00
    0.63340982596918082859E+00
    0.59124703029650238495E+00
    0.68612450170423544549E+00
    0.63804777805172352423E+00
    0.69365059210488466679E+00
    0.64777287153544227394E+00
    0.68312951727511683764E+00
    0.66592121595404918377E+00
    0.64407785330418765302E+00
    0.65774140257027857714E+00
    0.63203925348165124198E+00
    0.63860049446471434109E+00
    0.64743997936847386132E+00
    0.64392075281433736045E+00
    0.65733704540983062259E+00
    0.66139239868127364108E+00
    0.71660309436439140196E+00
    0.70848920151722749594E+00
    0.66235023987628627307E+00
    0.68230180255299688330E+00
    0.67736611018091041903E+00
    0.65345297058162254977E+00
    0.67295267035047789950E+00
    0.66932174549444467537E+00
    0.67925702176724700454E+00
    0.69978543418759109329E+00
    0.62424817468706594870E+00
    0.63693505535198569056E+00
    0.67228198130160943258E+00
    0.64575299232500060764E+00
    0.68159773026945291718E+00
    0.67703982551413499635E+00
    0.65182088506668012240E+00
    0.66426910124982385675E+00
    0.64494590281582020452E+00
    0.64801064463839397334E+00
    0.66245326997731279750E+00
    0.65654022534964695534E+00
    0.66054663748353381614E+00
    0.66279817821466746608E+00
    0.66463199344267420710E+00
    0.66498177854753126592E+00
    0.66669350509429958773E+00
    0.66155153206779315767E+00
    0.64760294253126282626E+00
    0.65155337600679164023E+00
    0.64067841628652055785E+00
    0.63136689622357844431E+00
    0.60463209361167669087E+00
    0.61078157277775435574E+00
    0.68527221324160414451E+00
    0.68738168032925006656E+00
    0.68420097399369850244E+00
    0.68529861142594583612E+00
    0.66903060605018971341E+00
    0.67126337095399368771E+00
    0.68005807385961647427E+00
    0.68074350019740148543E+00
    0.67906718328214588087E+00
    0.67662247856845803007E+00
    0.66062936669421845615E+00
    0.66928615979977590378E+00
    0.65384730682744873764E+00
    0.64230359459522967658E+00
    0.60074236820721549357E+00
    0.62080241481545683779E+00
    0.60067525313788294739E+00
    0.63488174815112963234E+00
    0.65519106384942249477E+00
    0.60774224351473016270E+00
    0.65590714307165609576E+00
    0.64708318135597564513E+00
    0.67069628473271014624E+00
    0.66380588976959598035E+00
    0.65978603142664105086E+00
    0.65371880178821761831E+00
    0.72797698643938246743E+00
    0.71655101152774092199E+00
    0.62499469898200366025E+00
    0.68680170382976579724E+00
    0.73644703971546687793E+00
    0.63810976565825450191E+00
    0.61429501006289743970E+00
    0.58759143197750707266E+00
    0.41581329550979817533E+00
    0.62787956405556355488E+00
    0.60081850262169966825E+00
    0.63241769420699012194E+00
    0.53248255820696022145E+00
    0.69021696659200704183E+00
    0.66762930267101694426E+00
    0.64975776595260870128E+00
    0.68490894104791932850E+00
    0.63705608522906476132E+00
    0.76072062383269922758E+00
    0.67479349928352894139E+00
    0.64979118936724333810E+00
    0.66394393362823278526E+00
    0.65751685562011252806E+00
    0.66051149848306267565E+00
    0.67087533659371423322E+00
    0.60857393128810532978E+00
    0.60336895377577093313E+00
    0.61450201663127024254E+00
    0.62536972756240882809E+00
    0.59080892050993327747E+00
    0.74849336022136792046E+00
    0.67706041668555738688E+00
    0.69705081172370730869E+00
    0.67431247439858388315E+00
    0.64302012530968055692E+00
    0.63494113752437120191E+00
    0.67144267201914020760E+00
    0.66079740217621085741E+00
    0.74625033956813879854E+00
    0.71284014356446823157E+00
    0.72965812060818890927E+00
    0.61809159564978721768E+00
    0.76794244441684811342E+00
    0.68016409965056823239E+00
    0.68030758294336390879E+00
    0.67622091858882704685E+00
    0.68743053078333204997E+00
    0.68455114107146997071E+00
    0.67034810453888482584E+00
    0.67857398812466163118E+00
    0.65062362621296465637E+00
    0.73171174215170786681E+00
    0.64031346981747661040E+00
    0.72762111553713992862E+00
    0.74810131144769176359E+00
    0.59406017538033417669E+00
    0.68361304750686990861E+00
    0.66087465585791083100E+00
    0.64772480000964316460E+00
    0.66980063302623582544E+00
    0.65156601900750632517E+00
    0.63094368126521427342E+00
    0.65618546291161439221E+00
    0.65691391105674612483E+00
    0.66700667510949107619E+00
    0.66210821336754510646E+00
    0.64635531069522045300E+00
    0.68166723775532322982E+00
    0.67921261389046994061E+00
    0.64870337290014623566E+00
    0.65194784503080649429E+00
    0.62932867086426047543E+00
    0.58599880048435204483E+00
    0.62972146187965682973E+00
    0.61279238618383324866E+00
    0.62405814215515431620E+00
    0.61410955354343343959E+00
    0.66099528922004591180E+00
    0.65352975483278319402E+00
    0.64529177513206903427E+00
    0.66020142184186569878E+00
    0.67044756138889005648E+00
    0.71627640915113599540E+00
    0.65580813285680694680E+00
    0.65868317475395632421E+00
    0.65513554619744018837E+00
    0.73062107355721628288E+00
    0.69346599106317297068E+00
    0.69760477754098637604E+00
    0.69854557189302490805E+00
    0.68710340329433139406E+00
    0.68536943326658028575E+00
    0.65719395105354772024E+00
    0.63825407294417801918E+00
    0.66404907552796399450E+00
    0.65202926858769960639E+00
    0.63066524782243404967E+00
    0.68359378115122626518E+00
    0.73959663849583234807E+00
    0.72517576101668668187E+00
    0.65867460873330574422E+00
    0.72078175196723348606E+00
    0.62822486926582454814E+00
    0.65230957711857850967E+00
    0.64133489751872996276E+00
    0.65621299903348873084E+00
    0.66737096964823072742E+00
    0.65135946112191911439E+00
    0.72488689096074143681E+00
    0.67905780169978335881E+00
    0.71155712470468346353E+00
    0.72941395251541307765E+00
    0.58032574483322851844E+00
    0.60996861280725211962E+00
    0.56974548912586997496E+00
    0.60507221202841399155E+00
    0.56808254108623246204E+00
    0.69485530121009886351E+00
    0.64344070922680096647E+00
    0.68382191544381254467E+00
    0.70001967644765616949E+00
    0.65349476999613242967E+00
    0.67227746281869160683E+00
    0.68318804755038586851E+00
    0.68557562529544502361E+00
    0.67714981299915355528E+00
    0.67796750698332486351E+00
    0.50633114562141590120E+00
    0.63210347265559840846E+00
    0.59897620643470894652E+00
    0.60430800877469881272E+00
    0.62702280366019058633E+00
    0.72674650564907616879E+00
    0.72695301123552846789E+00
    0.67238526523733954665E+00
    0.66932621323446894746E+00
    0.65758437633974553549E+00
    0.64842237896246812667E+00
    0.66011058638134312293E+00
    0.65283494502548555793E+00
    0.65184172221181935214E+00
    0.44966647619978039607E+00
    0.35200222523627688886E+00
    0.33595752717260879416E+00
    0.71553286101010749043E+00
    0.59265463322626654730E+00
    0.77061788698921918073E+00
    0.67375255555704482990E+00
    0.68113053667166023608E+00
    0.68674081819256116432E+00
    0.68841407656491027112E+00
    0.69181284373713247682E+00
    0.65993088907305441637E+00
    0.62372187861439565282E+00
    0.70095220269327263019E+00
    0.71154569244502163805E+00
    0.69663728959965087739E+00
    0.71708942901381467205E+00
    0.66473760655701885636E+00
    0.61797071179254725593E+00
    0.64397094773061813733E+00
    0.61090267970245737406E+00
    0.60656611006383709395E+00
    0.73920388184320762193E+00
    0.62277712131116835792E+00
    0.65989855601832347887E+00
    0.61803436605039363538E+00
    0.65519858731556812614E+00
    0.69057747928297819051E+00
    0.68313074239805826604E+00
    0.66944775457474681168E+00
    0.74887249185905235827E+00
    0.63538767432943987767E+00
    0.60882278546547585751E+00
    0.68997593173153382029E+00
    0.66306054379122347786E+00
    0.71003742443600093015E+00
    0.66152915461332317815E+00
    0.65822332821218076937E+00
    0.66488952518654320656E+00
    0.65592923716505668885E+00
    0.67293461820742850321E+00
    0.68120504328017594808E+00
    0.61675843098123594999E+00
    0.63968523352316308817E+00
    0.65618533518034305452E+00
    0.68559829554122320161E+00
    0.68506525107179083722E+00
    0.65613574659121975952E+00
    0.67934888900592937944E+00
    0.66931568751947179141E+00
    0.64659859872062364072E+00
    0.65853815800300263827E+00
    0.60118167440245928734E+00
    0.60348638730482739856E+00
    0.62035121141342541851E+00
    0.71980424302663237324E+00
    0.66470682228405486569E+00
    0.66702207458279938468E+00
    0.68365102535064448119E+00
    0.64065743816436815372E+00
    0.72748627009163047141E+00
    0.76785528168991112885E+00
    0.64583023345861989561E+00
    0.61347484496604887116E+00
    0.61684567845200533043E+00
    0.54146353085953979889E+00
    0.65561985951620393998E+00
    0.65557732709776095348E+00
    0.67716213406128589192E+00
    0.65058475565463436130E+00
    0.66355910079431623672E+00
    0.67279400601799532744E+00
    0.70082320532388342471E+00
    0.70817692706940338354E+00
    0.62373470741728320732E+00
    0.63127450015376918024E+00
    0.69385914129445880327E+00
    0.65487762971409158030E+00
    0.65760644571148363369E+00
    0.60589714863833321612E+00
    0.69154280018694191945E+00
    0.68418527551150787325E+00
    0.63159197980860248833E+00
    0.67945089030961691723E+00
    0.61327963478878311232E+00
    0.71114115830108759475E+00
    0.66584104015308176461E+00
    0.73302765139340597678E+00
    0.66318526421538337434E+00
    0.69388065169186008418E+00
    0.69709235577757922009E+00
    0.74710552370591465365E+00
    0.66473634911239887213E+00
    0.63717006759145611294E+00
    0.66630318505268948392E+00
    0.64845646532434420006E+00
    0.66307896713190228599E+00
    0.48297804760063722807E+00
    0.66488720580913196478E+00
    0.68380817189315523663E+00
    0.67098127489546488533E+00
    0.69280953941210243752E+00
    0.63331497335476860666E+00
    0.62724408089200955896E+00
    0.62031912824226831393E+00
    0.58132920504200402689E+00
    0.57340976423183898092E+00
    0.64294498136872180183E+00
    0.68980125496819133524E+00
    0.65547272885744878312E+00
    0.64100775791157404981E+00
    0.63830149780827660777E+00
    0.64934192634712450953E+00
    0.68289853170823588968E+00
    0.66854255110312599264E+00
    0.68998975986625965540E+00
    0.68300644082806893920E+00
    0.65390076952944420352E+00
    0.65020883881696511786E+00
    0.67640344926298623385E+00
    0.66204147925104050998E+00
    0.63741069811907180576E+00
    0.64837770713072129247E+00
    0.65344856359565384185E+00
    0.65184530173674604114E+00
    0.64461020884033803924E+00
    0.63067057805617154909E+00
    0.61003633809553081679E+00
    0.67740045621227173989E+00
    0.67781631434874922704E+00
    0.67796790688928099122E+00
    0.67404008628396816505E+00
    0.66568854275584354863E+00
    0.64677203547750072854E+00
    0.62016665389287006782E+00
