# vtk DataFile Version 3.0
LAPLACIEN  2D
ASCII
DATASET UNSTRUCTURED_GRID
 POINTS         391  float
  0.50371505999999999       0.50367786999999997        0.0000000000000000     
  0.29013556000000001       0.29014535000000002        0.0000000000000000     
  0.70165584999999997       0.71206597999999999        0.0000000000000000     
  0.70304188999999995       0.30176619999999998        0.0000000000000000     
  0.30920671999999999       0.71149227999999998        0.0000000000000000     
  0.79044983999999996       0.49884783999999999        0.0000000000000000     
  0.49102621000000002       0.20968644000000000        0.0000000000000000     
  0.49912957000000002       0.77208717000000004        0.0000000000000000     
  0.21724072999999999       0.48989389000000000        0.0000000000000000     
  0.83255933999999998       0.83046598000000005        0.0000000000000000     
  0.16646774000000000       0.17015694000000001        0.0000000000000000     
  0.83054514999999995       0.16736480000000001        0.0000000000000000     
  0.16953130999999999       0.83265739000000005        0.0000000000000000     
  0.42166445000000002       0.36345201999999999        0.0000000000000000     
  0.64462200999999997       0.56347807999999999        0.0000000000000000     
  0.35324633999999999       0.56311191000000005        0.0000000000000000     
  0.65456411000000003       0.84856860999999995        0.0000000000000000     
  0.35141477999999998       0.15563974000000000        0.0000000000000000     
  0.15290967000000000       0.35206625000000003        0.0000000000000000     
  0.82942241000000005       0.34936866000000000        0.0000000000000000     
  0.84390527000000004       0.64441694999999999        0.0000000000000000     
  0.63699174999999997       0.14284276000000001        0.0000000000000000     
  0.15620682999999999       0.64648446999999998        0.0000000000000000     
  0.36426062999999997       0.85756310999999996        0.0000000000000000     
  0.63489340999999999       0.40519052000000000        0.0000000000000000     
  0.52518872999999999       0.65957078000000002        0.0000000000000000     
  0.32158959999999998       0.42298103999999997        0.0000000000000000     
  0.58861710000000000       0.31711036999999997        0.0000000000000000     
  0.42078418000000001       0.69497151999999995        0.0000000000000000     
  0.48608786999999998       0.89334152000000000        0.0000000000000000     
   9.7084320000000002E-002  0.50000000000000000        0.0000000000000000     
  0.90291568000000000       0.50000000000000000        0.0000000000000000     
  0.51392453000000005       0.10668648999999999        0.0000000000000000     
  0.59792566999999996       0.73122754000000001        0.0000000000000000     
  0.74510058999999995       0.41124730999999998        0.0000000000000000     
  0.73212551999999997       0.90191560000000004        0.0000000000000000     
   9.7784830000000003E-002  0.26957329000000002        0.0000000000000000     
  0.26711221000000002        9.8671499999999995E-002   0.0000000000000000     
  0.90191560000000004       0.26787448000000003        0.0000000000000000     
  0.90118569000000004       0.73039821000000005        0.0000000000000000     
  0.73122947000000005        9.8017859999999998E-002   0.0000000000000000     
   9.8084400000000002E-002  0.73212551999999997        0.0000000000000000     
  0.26957329000000002       0.90221516999999996        0.0000000000000000     
  0.39283522999999998       0.25360379000000000        0.0000000000000000     
  0.74480864000000002       0.60495284999999999        0.0000000000000000     
  0.25505132000000003       0.60593640999999998        0.0000000000000000     
  0.52159297999999998       0.40671636000000000        0.0000000000000000     
  0.40768852000000000       0.47699891000000000        0.0000000000000000     
   9.1467049999999994E-002   9.1876959999999994E-002   0.0000000000000000     
  0.90842484999999995       0.90819225000000003        0.0000000000000000     
  0.90820104999999995        9.1566729999999999E-002   0.0000000000000000     
   9.1807449999999999E-002  0.90843574000000005        0.0000000000000000     
  0.27098960000000000       0.20527094000000001        0.0000000000000000     
  0.73457293999999995       0.79835387000000002        0.0000000000000000     
  0.79817773000000003       0.25713470999999999        0.0000000000000000     
  0.20747797000000001       0.72863946000000002        0.0000000000000000     
  0.20175195000000001       0.27583914999999998        0.0000000000000000     
  0.79603889000000005       0.72159035000000005        0.0000000000000000     
  0.71761666000000002       0.19748431999999999        0.0000000000000000     
  0.28462607000000001       0.80251899999999998        0.0000000000000000     
  0.69134598999999997       0.49261972999999998        0.0000000000000000     
  0.44720578999999999       0.58582935999999997        0.0000000000000000     
  0.24242269999999999       0.37228174000000003        0.0000000000000000     
  0.38265623999999998       0.93072131999999996        0.0000000000000000     
  0.60971754000000000       0.91988369000000003        0.0000000000000000     
   7.9163609999999995E-002  0.60979116000000000        0.0000000000000000     
  0.92010649000000000       0.61081183999999999        0.0000000000000000     
  0.61954008999999999        7.1530830000000004E-002   0.0000000000000000     
  0.91882012999999996       0.38917363999999999        0.0000000000000000     
  0.39086346000000000        8.0652249999999995E-002   0.0000000000000000     
   7.9183480000000001E-002  0.38966213000000000        0.0000000000000000     
  0.59114111999999996       0.49294315000000000        0.0000000000000000     
  0.63337980999999999       0.64485914000000000        0.0000000000000000     
  0.50012352000000004       0.29676539000000002        0.0000000000000000     
  0.82552601000000003       0.92753492000000004        0.0000000000000000     
  0.92774772999999999       0.82498556999999995        0.0000000000000000     
   7.1970870000000006E-002  0.17510291000000000        0.0000000000000000     
  0.17422821999999999        7.2635640000000001E-002   0.0000000000000000     
  0.82510813000000005        7.2134840000000006E-002   0.0000000000000000     
  0.92754665000000003       0.17446275999999999        0.0000000000000000     
  0.17501022999999999       0.92789951999999998        0.0000000000000000     
   7.2464680000000004E-002  0.82554053000000005        0.0000000000000000     
  0.30731587999999999       0.50885354999999999        0.0000000000000000     
  0.59033407999999998       0.22171178999999999        0.0000000000000000     
  0.40109191999999999       0.78725542000000004        0.0000000000000000     
  0.35420917000000002       0.63754104000000000        0.0000000000000000     
  0.15983976999999999       0.56665573000000002        0.0000000000000000     
  0.84108459999999996       0.56757886999999996        0.0000000000000000     
  0.83902096000000004       0.43344338999999998        0.0000000000000000     
  0.43230028999999998       0.16004268999999999        0.0000000000000000     
  0.57536027999999995       0.83041363999999995        0.0000000000000000     
  0.15771898000000001       0.42747892999999998        0.0000000000000000     
  0.34021692999999997       0.34221559000000001        0.0000000000000000     
  0.56002271999999997       0.57501117999999996        0.0000000000000000     
  0.65344329000000001       0.78147597999999996        0.0000000000000000     
   0.0000000000000000        0.0000000000000000        0.0000000000000000     
   1.0000000000000000        0.0000000000000000        0.0000000000000000     
   1.0000000000000000        1.0000000000000000        0.0000000000000000     
   0.0000000000000000        1.0000000000000000        0.0000000000000000     
  0.11111111000000000        0.0000000000000000        0.0000000000000000     
  0.22222222000000000        0.0000000000000000        0.0000000000000000     
  0.33333332999999998        0.0000000000000000        0.0000000000000000     
  0.44444444000000000        0.0000000000000000        0.0000000000000000     
  0.55555555999999995        0.0000000000000000        0.0000000000000000     
  0.66666667000000002        0.0000000000000000        0.0000000000000000     
  0.77777777999999997        0.0000000000000000        0.0000000000000000     
  0.88888889000000004        0.0000000000000000        0.0000000000000000     
   1.0000000000000000       0.11111111000000000        0.0000000000000000     
   1.0000000000000000       0.22222222000000000        0.0000000000000000     
   1.0000000000000000       0.33333332999999998        0.0000000000000000     
   1.0000000000000000       0.44444444000000000        0.0000000000000000     
   1.0000000000000000       0.55555555999999995        0.0000000000000000     
   1.0000000000000000       0.66666667000000002        0.0000000000000000     
   1.0000000000000000       0.77777777999999997        0.0000000000000000     
   1.0000000000000000       0.88888889000000004        0.0000000000000000     
  0.88888889000000004        1.0000000000000000        0.0000000000000000     
  0.77777777999999997        1.0000000000000000        0.0000000000000000     
  0.66666667000000002        1.0000000000000000        0.0000000000000000     
  0.55555555999999995        1.0000000000000000        0.0000000000000000     
  0.44444444000000000        1.0000000000000000        0.0000000000000000     
  0.33333332999999998        1.0000000000000000        0.0000000000000000     
  0.22222222000000000        1.0000000000000000        0.0000000000000000     
  0.11111111000000000        1.0000000000000000        0.0000000000000000     
   0.0000000000000000       0.11111111000000000        0.0000000000000000     
   0.0000000000000000       0.22222222000000000        0.0000000000000000     
[...]
 CELL_DATA         354
 SCALARS E float
 LOOKUP_TABLE default
    0.69710137064309707355E+00
    0.68799966401756718071E+00
    0.64107123154081424588E+00
    0.58668850532059324543E+00
    0.73800052254963643961E+00
    0.72643940474923462958E+00
    0.68094451004870837352E+00
    0.70797707172637402984E+00
    0.68133238732576395513E+00
    0.66641790675236034502E+00
    0.60192958095178950018E+00
    0.62877280268477298009E+00
    0.59863554965015031151E+00
    0.59193187574399308559E+00
    0.61819524270740666694E+00
    0.60716760174945960671E+00
    0.62408511017313461622E+00
    0.66272047297565128687E+00
    0.71811575027234941793E+00
    0.69276821057652993030E+00
    0.69968309999383349052E+00
    0.69369288260417194536E+00
    0.66191674882323625617E+00
    0.67736426563007356982E+00
    0.65110734133320602446E+00
    0.66192966221147941930E+00
    0.68880714611562665617E+00
    0.68019862152526455734E+00
    0.68768848711939933871E+00
    0.70179163383227038953E+00
    0.71375672925590283313E+00
    0.71451138415804704707E+00
    0.69820242028058709938E+00
    0.69858341768952203488E+00
    0.68849121364792809086E+00
    0.69606782142612055875E+00
    0.65970331858392838864E+00
    0.66779516356985124670E+00
    0.67202108621579603742E+00
    0.66906266732230168515E+00
    0.67453762594699395727E+00
    0.67967447521830048895E+00
    0.67473747954448282105E+00
    0.67940329935640741965E+00
    0.67191323476040731855E+00
    0.66810109197605738185E+00
    0.65902072448527360127E+00
    0.66416014257203648263E+00
    0.64713987008372353404E+00
    0.63784644888068098290E+00
    0.61787875495740807175E+00
    0.63003613826210058679E+00
    0.70519772627109533758E+00
    0.70967319104633008742E+00
    0.69813043883819470015E+00
    0.70255004029264411791E+00
    0.69469501572051606253E+00
    0.69990326463768159915E+00
    0.70424676308902023347E+00
    0.70534704368457101786E+00
    0.69687796615699026948E+00
    0.69707895967121324965E+00
    0.68131407049855796654E+00
    0.69388225014854310047E+00
    0.66359225839620661347E+00
    0.65411027735182825094E+00
    0.62961462156025638226E+00
    0.64333662711163619452E+00
    0.62839467785855662729E+00
    0.67309666208576468538E+00
    0.71948898897395330287E+00
    0.64299583420857497895E+00
    0.70494385492935573989E+00
    0.64385426887829111386E+00
    0.68951053636177772610E+00
    0.73280368090103742418E+00
    0.73621217358694512889E+00
    0.69271441723772375632E+00
    0.72402660773005322881E+00
    0.71532530270325622723E+00
    0.74383637228206833658E+00
    0.73135094718608828490E+00
    0.73597068122588393813E+00
    0.71821252930219392496E+00
    0.65962162139037228137E+00
    0.72478352007971158510E+00
    0.82052481276702338153E+00
    0.67089738116403307977E+00
    0.65954629437453571317E+00
    0.68368890509764657093E+00
    0.75469125679554205366E+00
    0.76855050134261593264E+00
    0.76165372310378542942E+00
    0.75275650599322352363E+00
    0.74741492114893681720E+00
    0.75452517594534918022E+00
    0.77080280121015287698E+00
    0.72877131088529267799E+00
    0.66582192244883631194E+00
    0.70813025548104446827E+00
    0.70111936195934032590E+00
    0.69352742041623982594E+00
    0.70688256123558101951E+00
    0.68068162875683246860E+00
    0.68529201170133280385E+00
    0.70764699993545099321E+00
    0.69910254094422841220E+00
    0.65046648432982068222E+00
    0.74268030999550482818E+00
    0.73810793644284644621E+00
    0.76587366965737446733E+00
    0.73913824031099728540E+00
    0.75626491379127580572E+00
    0.74496246522830977810E+00
    0.74517290140444480961E+00
    0.74890719812978567838E+00
    0.74839826104817419594E+00
    0.72437262414105108022E+00
    0.75078866409933053827E+00
    0.72345433595510388880E+00
    0.72788395628654412040E+00
    0.73370191895144876160E+00
    0.73846433973814784579E+00
    0.71519849744417074433E+00
    0.75930265083051773356E+00
    0.75663568959288207694E+00
    0.70523866657485534404E+00
    0.71805132529560311561E+00
    0.73521679506601733678E+00
    0.72928760841152584504E+00
    0.73324870026032629156E+00
    0.75062756878735903410E+00
    0.75250627337867870281E+00
    0.72134851984671022329E+00
    0.72038828456013126456E+00
    0.70665038232048105193E+00
    0.68167105990393705994E+00
    0.70098389789701887054E+00
    0.70966871071241444113E+00
    0.69555105093101399216E+00
    0.67350174472852319951E+00
    0.68040026961886734824E+00
    0.71175714191203254266E+00
    0.70372516418482389255E+00
    0.67821123888990519912E+00
    0.74251493752955122218E+00
    0.73768943700540257069E+00
    0.67611018958303903403E+00
    0.68119043330064477093E+00
    0.66348304416682313267E+00
    0.65214933658285867413E+00
    0.69571460263886308883E+00
    0.67402564959797495181E+00
    0.69583341924815023116E+00
    0.64361891797599934950E+00
    0.74531603650414468554E+00
    0.68657196797993025328E+00
    0.65470761962657686439E+00
    0.73700095370685214657E+00
    0.70462677206399582097E+00
    0.76945751023761088661E+00
    0.66418753793026141796E+00
    0.69602109937690104235E+00
    0.71965383000522109569E+00
    0.73710843429025474371E+00
    0.76396081243099289715E+00
    0.76003667235140293101E+00
    0.76711640781801726519E+00
    0.74383159382832730877E+00
    0.74858718217564823583E+00
    0.75054300287736719355E+00
    0.67316643796702568814E+00
    0.71042253162003832223E+00
    0.73551281179982908043E+00
    0.67586188580145190041E+00
    0.76789504472653136169E+00
    0.73387579828435922646E+00
    0.71325068461665031005E+00
    0.77226324847455551925E+00
    0.73730647631311951873E+00
    0.64781153003571234628E+00
    0.72305564671362043683E+00
    0.67704449329531579682E+00
    0.73034765305167614891E+00
    0.67744943567589122058E+00
    0.77312594321064398439E+00
    0.71675386712007704837E+00
    0.74141216280861221843E+00
    0.76914055005110404384E+00
    0.72621809968701767080E+00
    0.65430338583369374028E+00
    0.69169455290448234042E+00
    0.63672253173621862210E+00
    0.65215718316606274829E+00
    0.66616418807022159676E+00
    0.75853923175120563371E+00
    0.72958932713022051075E+00
    0.73701969543532630524E+00
    0.76426243513662028839E+00
    0.73980806823504541292E+00
    0.71902814025763506223E+00
    0.73945881312036199073E+00
    0.72692130816054933984E+00
    0.71975120300100525750E+00
    0.73214960317183253036E+00
    0.78276419669438790372E+00
    0.65457804429577182148E+00
    0.69783794703423063233E+00
    0.65719548715899001046E+00
    0.66097167363952968877E+00
    0.73805454140190174250E+00
    0.72882666185154687533E+00
    0.71751853336924775739E+00
    0.73056466253082408269E+00
    0.72127132110160985246E+00
    0.67051194216827325612E+00
    0.73972013758596355526E+00
    0.70695453529054419484E+00
    0.69835646831960895842E+00
    0.79254247682689105137E+00
    0.82661389055617717769E+00
    0.83726725667514645401E+00
    0.71803889497515771545E+00
    0.74641866948178026142E+00
    0.73845313899643993949E+00
    0.70000406421695460235E+00
    0.74317320056490199232E+00
    0.76235285401755759072E+00
    0.75979912640444147165E+00
    0.75032512757931590919E+00
    0.76459547604790190078E+00
    0.74790142094236866654E+00
    0.77305004932012366670E+00
    0.74599758114296776945E+00
    0.74828750133214716467E+00
    0.73229710454193130964E+00
    0.75612627244874153210E+00
    0.62417880392036217962E+00
    0.69771595156722066022E+00
    0.72074765079335545437E+00
    0.69102159542258700942E+00
    0.73445258553914749555E+00
    0.74450868430959460387E+00
    0.72797324999202894791E+00
    0.65943926509064954011E+00
    0.64281321494643650638E+00
    0.75619247152817126167E+00
    0.75049251948450401706E+00
    0.70552876117907736830E+00
    0.75282122980290844261E+00
    0.76254012818392169493E+00
    0.72758442511042553669E+00
    0.74178698685265498369E+00
    0.75487980592542780478E+00
    0.70817220593168928033E+00
    0.72444807643285369370E+00
    0.72336169857007859285E+00
    0.69292548981648982576E+00
    0.76169094484966870517E+00
    0.77346568450968611330E+00
    0.71423908434273486456E+00
    0.69143457799382679330E+00
    0.70889223020093239391E+00
    0.66167172181628974847E+00
    0.74490587196114421698E+00
    0.75142898129670632201E+00
    0.68355903606150847374E+00
    0.73342442018227926859E+00
    0.72537622963377834662E+00
    0.67465374307022152323E+00
    0.66337273123202655789E+00
    0.70982621881627527838E+00
    0.65777115431855703864E+00
    0.63436314878555655206E+00
    0.71714852957356700625E+00
    0.72994244167159405556E+00
    0.73631427121797710100E+00
    0.70142000804317650164E+00
    0.73677004387942113262E+00
    0.77558567865901051341E+00
    0.76658018920784165573E+00
    0.72727514102985324485E+00
    0.67277956680378603327E+00
    0.63645570240999516098E+00
    0.74366210008050548375E+00
    0.69108363483142354333E+00
    0.66804845985674032871E+00
    0.74177145654014386977E+00
    0.74290339900202950751E+00
    0.70560439297204624598E+00
    0.71706623129858282351E+00
    0.72130136456746429818E+00
    0.72300088136599405253E+00
    0.66645052397480775142E+00
    0.67127103695828516106E+00
    0.74044535557972190887E+00
    0.75271541611329506605E+00
    0.75465229707633452172E+00
    0.67225708254415927900E+00
    0.75061930796468634419E+00
    0.72712447642314348428E+00
    0.66219810179157223562E+00
    0.72931431902077314966E+00
    0.65389725292971945247E+00
    0.70647848373534005706E+00
    0.72042786012949100449E+00
    0.69790579796099594390E+00
    0.72355288193743627634E+00
    0.75926150022741267787E+00
    0.75641418046143904519E+00
    0.74998641955591982544E+00
    0.73769318339245126825E+00
    0.71054456956190981121E+00
    0.76803560002259363415E+00
    0.67552141575125168593E+00
    0.73391481455800122724E+00
    0.75829440255905178336E+00
    0.74708399125058766455E+00
    0.71536940355261646740E+00
    0.67621895436181400640E+00
    0.70530311048507743354E+00
    0.68193176457275628266E+00
    0.64875478052503332549E+00
    0.61593252163175327141E+00
    0.56839240851974548452E+00
    0.58106405767408586538E+00
    0.71282311012738286404E+00
    0.66531839666720071769E+00
    0.62437141601425083515E+00
    0.58650067461815236225E+00
    0.57109874717346231776E+00
    0.59858689306534218488E+00
    0.66809849472080462540E+00
    0.66664041163410869828E+00
    0.64210040324425643465E+00
    0.64890485486705495877E+00
    0.66916255238548605355E+00
    0.68654936142822586831E+00
    0.68863761950643265219E+00
    0.68462496935592076497E+00
    0.63785346573343704168E+00
    0.64189215214385686448E+00
    0.64655277638079455826E+00
    0.64346435270922841543E+00
    0.63785253150511533882E+00
    0.62212894492365922172E+00
    0.60494965146023904623E+00
    0.68173731453823482873E+00
    0.67426554160713259023E+00
    0.67506478071561482057E+00
    0.67511792174035978320E+00
    0.66816741277118119058E+00
    0.64723381454448380978E+00
    0.62614796294402697008E+00
