# vtk DataFile Version 3.0
LAPLACIEN  2D
ASCII
DATASET UNSTRUCTURED_GRID
 POINTS         391  float
  0.50371505999999999       0.50367786999999997        0.0000000000000000     
  0.29013556000000001       0.29014535000000002        0.0000000000000000     
  0.70165584999999997       0.71206597999999999        0.0000000000000000     
  0.70304188999999995       0.30176619999999998        0.0000000000000000     
  0.30920671999999999       0.71149227999999998        0.0000000000000000     
  0.79044983999999996       0.49884783999999999        0.0000000000000000     
  0.49102621000000002       0.20968644000000000        0.0000000000000000     
  0.49912957000000002       0.77208717000000004        0.0000000000000000     
  0.21724072999999999       0.48989389000000000        0.0000000000000000     
  0.83255933999999998       0.83046598000000005        0.0000000000000000     
  0.16646774000000000       0.17015694000000001        0.0000000000000000     
  0.83054514999999995       0.16736480000000001        0.0000000000000000     
  0.16953130999999999       0.83265739000000005        0.0000000000000000     
  0.42166445000000002       0.36345201999999999        0.0000000000000000     
  0.64462200999999997       0.56347807999999999        0.0000000000000000     
  0.35324633999999999       0.56311191000000005        0.0000000000000000     
  0.65456411000000003       0.84856860999999995        0.0000000000000000     
  0.35141477999999998       0.15563974000000000        0.0000000000000000     
  0.15290967000000000       0.35206625000000003        0.0000000000000000     
  0.82942241000000005       0.34936866000000000        0.0000000000000000     
  0.84390527000000004       0.64441694999999999        0.0000000000000000     
  0.63699174999999997       0.14284276000000001        0.0000000000000000     
  0.15620682999999999       0.64648446999999998        0.0000000000000000     
  0.36426062999999997       0.85756310999999996        0.0000000000000000     
  0.63489340999999999       0.40519052000000000        0.0000000000000000     
  0.52518872999999999       0.65957078000000002        0.0000000000000000     
  0.32158959999999998       0.42298103999999997        0.0000000000000000     
  0.58861710000000000       0.31711036999999997        0.0000000000000000     
  0.42078418000000001       0.69497151999999995        0.0000000000000000     
  0.48608786999999998       0.89334152000000000        0.0000000000000000     
   9.7084320000000002E-002  0.50000000000000000        0.0000000000000000     
  0.90291568000000000       0.50000000000000000        0.0000000000000000     
  0.51392453000000005       0.10668648999999999        0.0000000000000000     
  0.59792566999999996       0.73122754000000001        0.0000000000000000     
  0.74510058999999995       0.41124730999999998        0.0000000000000000     
  0.73212551999999997       0.90191560000000004        0.0000000000000000     
   9.7784830000000003E-002  0.26957329000000002        0.0000000000000000     
  0.26711221000000002        9.8671499999999995E-002   0.0000000000000000     
  0.90191560000000004       0.26787448000000003        0.0000000000000000     
  0.90118569000000004       0.73039821000000005        0.0000000000000000     
  0.73122947000000005        9.8017859999999998E-002   0.0000000000000000     
   9.8084400000000002E-002  0.73212551999999997        0.0000000000000000     
  0.26957329000000002       0.90221516999999996        0.0000000000000000     
  0.39283522999999998       0.25360379000000000        0.0000000000000000     
  0.74480864000000002       0.60495284999999999        0.0000000000000000     
  0.25505132000000003       0.60593640999999998        0.0000000000000000     
  0.52159297999999998       0.40671636000000000        0.0000000000000000     
  0.40768852000000000       0.47699891000000000        0.0000000000000000     
   9.1467049999999994E-002   9.1876959999999994E-002   0.0000000000000000     
  0.90842484999999995       0.90819225000000003        0.0000000000000000     
  0.90820104999999995        9.1566729999999999E-002   0.0000000000000000     
   9.1807449999999999E-002  0.90843574000000005        0.0000000000000000     
  0.27098960000000000       0.20527094000000001        0.0000000000000000     
  0.73457293999999995       0.79835387000000002        0.0000000000000000     
  0.79817773000000003       0.25713470999999999        0.0000000000000000     
  0.20747797000000001       0.72863946000000002        0.0000000000000000     
  0.20175195000000001       0.27583914999999998        0.0000000000000000     
  0.79603889000000005       0.72159035000000005        0.0000000000000000     
  0.71761666000000002       0.19748431999999999        0.0000000000000000     
  0.28462607000000001       0.80251899999999998        0.0000000000000000     
  0.69134598999999997       0.49261972999999998        0.0000000000000000     
  0.44720578999999999       0.58582935999999997        0.0000000000000000     
  0.24242269999999999       0.37228174000000003        0.0000000000000000     
  0.38265623999999998       0.93072131999999996        0.0000000000000000     
  0.60971754000000000       0.91988369000000003        0.0000000000000000     
   7.9163609999999995E-002  0.60979116000000000        0.0000000000000000     
  0.92010649000000000       0.61081183999999999        0.0000000000000000     
  0.61954008999999999        7.1530830000000004E-002   0.0000000000000000     
  0.91882012999999996       0.38917363999999999        0.0000000000000000     
  0.39086346000000000        8.0652249999999995E-002   0.0000000000000000     
   7.9183480000000001E-002  0.38966213000000000        0.0000000000000000     
  0.59114111999999996       0.49294315000000000        0.0000000000000000     
  0.63337980999999999       0.64485914000000000        0.0000000000000000     
  0.50012352000000004       0.29676539000000002        0.0000000000000000     
  0.82552601000000003       0.92753492000000004        0.0000000000000000     
  0.92774772999999999       0.82498556999999995        0.0000000000000000     
   7.1970870000000006E-002  0.17510291000000000        0.0000000000000000     
  0.17422821999999999        7.2635640000000001E-002   0.0000000000000000     
  0.82510813000000005        7.2134840000000006E-002   0.0000000000000000     
  0.92754665000000003       0.17446275999999999        0.0000000000000000     
  0.17501022999999999       0.92789951999999998        0.0000000000000000     
   7.2464680000000004E-002  0.82554053000000005        0.0000000000000000     
  0.30731587999999999       0.50885354999999999        0.0000000000000000     
  0.59033407999999998       0.22171178999999999        0.0000000000000000     
  0.40109191999999999       0.78725542000000004        0.0000000000000000     
  0.35420917000000002       0.63754104000000000        0.0000000000000000     
  0.15983976999999999       0.56665573000000002        0.0000000000000000     
  0.84108459999999996       0.56757886999999996        0.0000000000000000     
  0.83902096000000004       0.43344338999999998        0.0000000000000000     
  0.43230028999999998       0.16004268999999999        0.0000000000000000     
  0.57536027999999995       0.83041363999999995        0.0000000000000000     
  0.15771898000000001       0.42747892999999998        0.0000000000000000     
  0.34021692999999997       0.34221559000000001        0.0000000000000000     
  0.56002271999999997       0.57501117999999996        0.0000000000000000     
  0.65344329000000001       0.78147597999999996        0.0000000000000000     
   0.0000000000000000        0.0000000000000000        0.0000000000000000     
   1.0000000000000000        0.0000000000000000        0.0000000000000000     
   1.0000000000000000        1.0000000000000000        0.0000000000000000     
   0.0000000000000000        1.0000000000000000        0.0000000000000000     
  0.11111111000000000        0.0000000000000000        0.0000000000000000     
  0.22222222000000000        0.0000000000000000        0.0000000000000000     
  0.33333332999999998        0.0000000000000000        0.0000000000000000     
  0.44444444000000000        0.0000000000000000        0.0000000000000000     
  0.55555555999999995        0.0000000000000000        0.0000000000000000     
  0.66666667000000002        0.0000000000000000        0.0000000000000000     
  0.77777777999999997        0.0000000000000000        0.0000000000000000     
  0.88888889000000004        0.0000000000000000        0.0000000000000000     
   1.0000000000000000       0.11111111000000000        0.0000000000000000     
   1.0000000000000000       0.22222222000000000        0.0000000000000000     
   1.0000000000000000       0.33333332999999998        0.0000000000000000     
   1.0000000000000000       0.44444444000000000        0.0000000000000000     
   1.0000000000000000       0.55555555999999995        0.0000000000000000     
   1.0000000000000000       0.66666667000000002        0.0000000000000000     
   1.0000000000000000       0.77777777999999997        0.0000000000000000     
   1.0000000000000000       0.88888889000000004        0.0000000000000000     
  0.88888889000000004        1.0000000000000000        0.0000000000000000     
  0.77777777999999997        1.0000000000000000        0.0000000000000000     
  0.66666667000000002        1.0000000000000000        0.0000000000000000     
  0.55555555999999995        1.0000000000000000        0.0000000000000000     
  0.44444444000000000        1.0000000000000000        0.0000000000000000     
  0.33333332999999998        1.0000000000000000        0.0000000000000000     
  0.22222222000000000        1.0000000000000000        0.0000000000000000     
  0.11111111000000000        1.0000000000000000        0.0000000000000000     
   0.0000000000000000       0.11111111000000000        0.0000000000000000     
   0.0000000000000000       0.22222222000000000        0.0000000000000000     
[...]
 CELL_DATA         354
 SCALARS E float
 LOOKUP_TABLE default
    0.69573987465511355488E+00
    0.68611740761542483469E+00
    0.63997276171190919936E+00
    0.58566539683340457234E+00
    0.73761828014136443521E+00
    0.72561373418970698257E+00
    0.67904863486241018311E+00
    0.70653059165205456260E+00
    0.68005971884779370384E+00
    0.66491401260784011029E+00
    0.59950003657848449645E+00
    0.62659646959260095755E+00
    0.59593087126813681920E+00
    0.58886350343419935349E+00
    0.61614487671610185249E+00
    0.60481814196284267027E+00
    0.62148531320087063712E+00
    0.66069553107020784211E+00
    0.71731536962185327155E+00
    0.69138990726035953749E+00
    0.69814685166362289159E+00
    0.69204633639494095299E+00
    0.65954800456018158883E+00
    0.67532564622527502252E+00
    0.64874122778036324988E+00
    0.65980293392015754161E+00
    0.68729307464409394868E+00
    0.67846972469066690881E+00
    0.68595305753474988819E+00
    0.70028994165842173292E+00
    0.71284275910059169412E+00
    0.71346652005342892089E+00
    0.69686321494947434108E+00
    0.69751730029968361801E+00
    0.68814790034392947504E+00
    0.69547328352458359646E+00
    0.65877204068379457969E+00
    0.66689690131975687404E+00
    0.67067336220921347500E+00
    0.66790781477816196787E+00
    0.67331944840281787723E+00
    0.67857496395461314176E+00
    0.67332062387410862581E+00
    0.67818953677206705866E+00
    0.67032876348883785322E+00
    0.66664674652635724783E+00
    0.65787436952216749031E+00
    0.66297082394471706923E+00
    0.64587008199414808196E+00
    0.63680332005079676172E+00
    0.61719089238747737447E+00
    0.62930031209742098852E+00
    0.70389498884320655936E+00
    0.70844749173559717903E+00
    0.69643082374845732829E+00
    0.70103057982689886973E+00
    0.69313750269880525234E+00
    0.69852545982407121539E+00
    0.70302179278429566267E+00
    0.70409950170724477925E+00
    0.69550488674239940856E+00
    0.69586985595871420074E+00
    0.68030898511520998539E+00
    0.69291724361894346806E+00
    0.66234205694744874293E+00
    0.65313021446964913963E+00
    0.62913400280058140446E+00
    0.64271352033304651741E+00
    0.62894107457451420284E+00
    0.67354202660575746009E+00
    0.72029681823276126007E+00
    0.64310232305193715252E+00
    0.70565875772513553255E+00
    0.64294890372310575799E+00
    0.68902717203230312570E+00
    0.73327473246546936991E+00
    0.73697218955142873575E+00
    0.69282443522988967910E+00
    0.72350844733067276593E+00
    0.71500608986553593205E+00
    0.74359472203527010592E+00
    0.73086312069896941512E+00
    0.73619405143450644680E+00
    0.71742168843813236556E+00
    0.66072537919305629472E+00
    0.72931216174249879902E+00
    0.82482121798494867360E+00
    0.67402422783466831024E+00
    0.66106670246615373276E+00
    0.68812121729471475984E+00
    0.75932664764154389481E+00
    0.76907345211014122022E+00
    0.76214947700858037827E+00
    0.75298522888349550541E+00
    0.74750969519950238862E+00
    0.75476722555432818051E+00
    0.77144736533376589982E+00
    0.72914740910775710514E+00
    0.66560840227382522816E+00
    0.70832096429912794200E+00
    0.70171088429137606912E+00
    0.69322567884575181374E+00
    0.70698264654684395136E+00
    0.68307707677919071720E+00
    0.68778052902418229664E+00
    0.71292284443574283070E+00
    0.70434959158910959154E+00
    0.65226436296609624499E+00
    0.74273241510560061851E+00
    0.73793157605088299800E+00
    0.76631473153973983514E+00
    0.73892514576021195438E+00
    0.75638145765341602278E+00
    0.74486858892899765472E+00
    0.74578531165531147806E+00
    0.74889812336196548426E+00
    0.74875078813886064566E+00
    0.72439289281414187549E+00
    0.75134437371126294725E+00
    0.72306915182248032714E+00
    0.72764248508064055532E+00
    0.73367085089426486988E+00
    0.73834111081386977204E+00
    0.71484382786261835285E+00
    0.75964474912813939600E+00
    0.75688659184365114641E+00
    0.70468354654753317945E+00
    0.71759177185902056628E+00
    0.73499428134907451859E+00
    0.72919667016105504942E+00
    0.73269091899200056162E+00
    0.75118748615445596339E+00
    0.75294267802116610078E+00
    0.72061653236629841235E+00
    0.71973060649668108013E+00
    0.70695541792344973597E+00
    0.68181762419630675964E+00
    0.70040761765980130704E+00
    0.71052286666881203647E+00
    0.69647590755531130213E+00
    0.67287977267203757936E+00
    0.67979883779796579368E+00
    0.71156468002180583987E+00
    0.70345981699745196991E+00
    0.67786633404923590795E+00
    0.74283011812983223976E+00
    0.73793103878038301957E+00
    0.67554098798615680455E+00
    0.68064637205635647454E+00
    0.66378817945755430596E+00
    0.65350529627696618551E+00
    0.69941357457483022131E+00
    0.67521072279591665133E+00
    0.69997076602431451686E+00
    0.64388011419486701481E+00
    0.74639413009120647580E+00
    0.68697556301032836057E+00
    0.65457295613607113793E+00
    0.73789183353516629715E+00
    0.70506406631435414312E+00
    0.77033420557502751969E+00
    0.66316839751577805195E+00
    0.69556691148610050313E+00
    0.71938822716416761516E+00
    0.73729463738663769679E+00
    0.76454264843672692376E+00
    0.76040086786768734672E+00
    0.76772873053601908833E+00
    0.74378462882156703984E+00
    0.74858362143772161357E+00
    0.75146683608752395944E+00
    0.67348436850127701980E+00
    0.71079274573851236596E+00
    0.73656222181465846877E+00
    0.67635235355927469936E+00
    0.76832875881817774832E+00
    0.73385640664733031713E+00
    0.71270293658728745001E+00
    0.77278453083645926025E+00
    0.73699577041623509643E+00
    0.64789490370626234839E+00
    0.72373870995138234186E+00
    0.67744763598628143786E+00
    0.73101884009642992268E+00
    0.67720086402957657690E+00
    0.77368428252697429848E+00
    0.71612832559070327410E+00
    0.74117922534678992719E+00
    0.76968379056233349189E+00
    0.72584485755033145704E+00
    0.65581448788355278801E+00
    0.69254131432586563122E+00
    0.63792293175421954654E+00
    0.65301798596988591683E+00
    0.66865492192082964795E+00
    0.75899593309351653936E+00
    0.72899923166288782550E+00
    0.73673077765585537335E+00
    0.76475060309499598432E+00
    0.73948865058185031529E+00
    0.71866467006481948854E+00
    0.73968030558508424122E+00
    0.72651616617562242428E+00
    0.71948153292044458862E+00
    0.73190010259662530157E+00
    0.78797788593520223799E+00
    0.65738616194988364061E+00
    0.70187562069155262634E+00
    0.65855174072728894785E+00
    0.66348964228999962600E+00
    0.73812604752904653616E+00
    0.72871838001347710723E+00
    0.71773242839952489103E+00
    0.73088108733484258295E+00
    0.72182675765414550106E+00
    0.67044670327743560723E+00
    0.74049020278659316574E+00
    0.70689800245973322124E+00
    0.69877915087781428127E+00
    0.79761107240345774372E+00
    0.83084868327936034493E+00
    0.84072984590223032164E+00
    0.71770917406548806472E+00
    0.74641328556899599889E+00
    0.73828882510857307686E+00
    0.69918663672821623756E+00
    0.74343711133816137160E+00
    0.76284318925542426992E+00
    0.76017575266249437504E+00
    0.75042092167894502985E+00
    0.76507828957479595555E+00
    0.74781933759075935875E+00
    0.77359645904264773275E+00
    0.74606922314457346790E+00
    0.74895439846931455286E+00
    0.73241921873930371234E+00
    0.75705581729366755450E+00
    0.62424948910927902102E+00
    0.69836310236795318129E+00
    0.72398893424638732785E+00
    0.69243315925269266486E+00
    0.73454066853574473406E+00
    0.74435687739422062847E+00
    0.72743717552484521427E+00
    0.66002610593801369632E+00
    0.64199649014983850570E+00
    0.75659304059974918921E+00
    0.75102643407071778547E+00
    0.70506708026562370240E+00
    0.75311504363457848488E+00
    0.76291925458714071606E+00
    0.72694700460664496422E+00
    0.74237482180267111431E+00
    0.75598456760354959538E+00
    0.70723912959626422658E+00
    0.72527299400928124662E+00
    0.72363226063205710048E+00
    0.69243074320793551735E+00
    0.76199527395351540626E+00
    0.77415520101122925478E+00
    0.71349622221038511150E+00
    0.69239957476768798639E+00
    0.70988591911273701829E+00
    0.66082856077341423084E+00
    0.74514148215323650071E+00
    0.75198231019734285141E+00
    0.68291701494740242318E+00
    0.73353442401713042642E+00
    0.72562594530517399161E+00
    0.67403717410525132436E+00
    0.66285283851917398135E+00
    0.71306253737138425297E+00
    0.65890972726803442860E+00
    0.63421631093611674501E+00
    0.71647805007361742291E+00
    0.73088359511409950464E+00
    0.73698760880412184093E+00
    0.70086858546704289274E+00
    0.73654535261298581528E+00
    0.77655216374210933594E+00
    0.76734335006324094763E+00
    0.72685584557029314645E+00
    0.67434194091581001196E+00
    0.63843579273851269740E+00
    0.74836471870974985432E+00
    0.69110094886540751613E+00
    0.66705120164825171258E+00
    0.74143844332712727230E+00
    0.74258061505237182853E+00
    0.70538436541746407649E+00
    0.71693293712776962057E+00
    0.72102571696796780021E+00
    0.72260767788263291500E+00
    0.66629025174557388045E+00
    0.67111560388010793599E+00
    0.74087923610281058995E+00
    0.75276025591991069241E+00
    0.75467810908750676546E+00
    0.67374787159823235072E+00
    0.75086355279968941545E+00
    0.72734799799540161835E+00
    0.66669301116623946868E+00
    0.72890697945030813454E+00
    0.65432826321521542212E+00
    0.70585474255470559424E+00
    0.72117707869007796617E+00
    0.69705060535403751132E+00
    0.72421831536034564358E+00
    0.75969796124949939831E+00
    0.75659930508152184458E+00
    0.75017703876171715205E+00
    0.73836275250157901162E+00
    0.71145712404504446447E+00
    0.76851891404425254350E+00
    0.67571695433396261610E+00
    0.73464339987001714416E+00
    0.76326453734991095423E+00
    0.74698974982085764029E+00
    0.71464454039730851420E+00
    0.67441618814683712557E+00
    0.70391077037102156577E+00
    0.67971099904556731008E+00
    0.64809041523071708735E+00
    0.61456723722695949519E+00
    0.56732783898549365986E+00
    0.58024045997525186547E+00
    0.71161437413233974425E+00
    0.66298297545965290123E+00
    0.62111861424689362998E+00
    0.58260875035557657675E+00
    0.56676821186466419533E+00
    0.59489577476154387181E+00
    0.66588182814466434500E+00
    0.66403309295719781247E+00
    0.63879755394950932246E+00
    0.64577965909662693456E+00
    0.66662036764240251152E+00
    0.68448632074977577844E+00
    0.68707069339949167208E+00
    0.68370795043357246445E+00
    0.63638926047350174997E+00
    0.64003608641749720753E+00
    0.64464510312823974925E+00
    0.64148615342704751185E+00
    0.63604930335014464582E+00
    0.62046343156564087717E+00
    0.60374563258247293529E+00
    0.67980958266955238134E+00
    0.67197907571064185994E+00
    0.67286356209851794219E+00
    0.67313906297398484746E+00
    0.66641389297247877188E+00
    0.64566789912984601241E+00
    0.62514173889872770573E+00
