# vtk DataFile Version 3.0
LAPLACIEN  2D
ASCII
DATASET UNSTRUCTURED_GRID
 POINTS         391  float
  0.50371505999999999       0.50367786999999997        0.0000000000000000     
  0.29013556000000001       0.29014535000000002        0.0000000000000000     
  0.70165584999999997       0.71206597999999999        0.0000000000000000     
  0.70304188999999995       0.30176619999999998        0.0000000000000000     
  0.30920671999999999       0.71149227999999998        0.0000000000000000     
  0.79044983999999996       0.49884783999999999        0.0000000000000000     
  0.49102621000000002       0.20968644000000000        0.0000000000000000     
  0.49912957000000002       0.77208717000000004        0.0000000000000000     
  0.21724072999999999       0.48989389000000000        0.0000000000000000     
  0.83255933999999998       0.83046598000000005        0.0000000000000000     
  0.16646774000000000       0.17015694000000001        0.0000000000000000     
  0.83054514999999995       0.16736480000000001        0.0000000000000000     
  0.16953130999999999       0.83265739000000005        0.0000000000000000     
  0.42166445000000002       0.36345201999999999        0.0000000000000000     
  0.64462200999999997       0.56347807999999999        0.0000000000000000     
  0.35324633999999999       0.56311191000000005        0.0000000000000000     
  0.65456411000000003       0.84856860999999995        0.0000000000000000     
  0.35141477999999998       0.15563974000000000        0.0000000000000000     
  0.15290967000000000       0.35206625000000003        0.0000000000000000     
  0.82942241000000005       0.34936866000000000        0.0000000000000000     
  0.84390527000000004       0.64441694999999999        0.0000000000000000     
  0.63699174999999997       0.14284276000000001        0.0000000000000000     
  0.15620682999999999       0.64648446999999998        0.0000000000000000     
  0.36426062999999997       0.85756310999999996        0.0000000000000000     
  0.63489340999999999       0.40519052000000000        0.0000000000000000     
  0.52518872999999999       0.65957078000000002        0.0000000000000000     
  0.32158959999999998       0.42298103999999997        0.0000000000000000     
  0.58861710000000000       0.31711036999999997        0.0000000000000000     
  0.42078418000000001       0.69497151999999995        0.0000000000000000     
  0.48608786999999998       0.89334152000000000        0.0000000000000000     
   9.7084320000000002E-002  0.50000000000000000        0.0000000000000000     
  0.90291568000000000       0.50000000000000000        0.0000000000000000     
  0.51392453000000005       0.10668648999999999        0.0000000000000000     
  0.59792566999999996       0.73122754000000001        0.0000000000000000     
  0.74510058999999995       0.41124730999999998        0.0000000000000000     
  0.73212551999999997       0.90191560000000004        0.0000000000000000     
   9.7784830000000003E-002  0.26957329000000002        0.0000000000000000     
  0.26711221000000002        9.8671499999999995E-002   0.0000000000000000     
  0.90191560000000004       0.26787448000000003        0.0000000000000000     
  0.90118569000000004       0.73039821000000005        0.0000000000000000     
  0.73122947000000005        9.8017859999999998E-002   0.0000000000000000     
   9.8084400000000002E-002  0.73212551999999997        0.0000000000000000     
  0.26957329000000002       0.90221516999999996        0.0000000000000000     
  0.39283522999999998       0.25360379000000000        0.0000000000000000     
  0.74480864000000002       0.60495284999999999        0.0000000000000000     
  0.25505132000000003       0.60593640999999998        0.0000000000000000     
  0.52159297999999998       0.40671636000000000        0.0000000000000000     
  0.40768852000000000       0.47699891000000000        0.0000000000000000     
   9.1467049999999994E-002   9.1876959999999994E-002   0.0000000000000000     
  0.90842484999999995       0.90819225000000003        0.0000000000000000     
  0.90820104999999995        9.1566729999999999E-002   0.0000000000000000     
   9.1807449999999999E-002  0.90843574000000005        0.0000000000000000     
  0.27098960000000000       0.20527094000000001        0.0000000000000000     
  0.73457293999999995       0.79835387000000002        0.0000000000000000     
  0.79817773000000003       0.25713470999999999        0.0000000000000000     
  0.20747797000000001       0.72863946000000002        0.0000000000000000     
  0.20175195000000001       0.27583914999999998        0.0000000000000000     
  0.79603889000000005       0.72159035000000005        0.0000000000000000     
  0.71761666000000002       0.19748431999999999        0.0000000000000000     
  0.28462607000000001       0.80251899999999998        0.0000000000000000     
  0.69134598999999997       0.49261972999999998        0.0000000000000000     
  0.44720578999999999       0.58582935999999997        0.0000000000000000     
  0.24242269999999999       0.37228174000000003        0.0000000000000000     
  0.38265623999999998       0.93072131999999996        0.0000000000000000     
  0.60971754000000000       0.91988369000000003        0.0000000000000000     
   7.9163609999999995E-002  0.60979116000000000        0.0000000000000000     
  0.92010649000000000       0.61081183999999999        0.0000000000000000     
  0.61954008999999999        7.1530830000000004E-002   0.0000000000000000     
  0.91882012999999996       0.38917363999999999        0.0000000000000000     
  0.39086346000000000        8.0652249999999995E-002   0.0000000000000000     
   7.9183480000000001E-002  0.38966213000000000        0.0000000000000000     
  0.59114111999999996       0.49294315000000000        0.0000000000000000     
  0.63337980999999999       0.64485914000000000        0.0000000000000000     
  0.50012352000000004       0.29676539000000002        0.0000000000000000     
  0.82552601000000003       0.92753492000000004        0.0000000000000000     
  0.92774772999999999       0.82498556999999995        0.0000000000000000     
   7.1970870000000006E-002  0.17510291000000000        0.0000000000000000     
  0.17422821999999999        7.2635640000000001E-002   0.0000000000000000     
  0.82510813000000005        7.2134840000000006E-002   0.0000000000000000     
  0.92754665000000003       0.17446275999999999        0.0000000000000000     
  0.17501022999999999       0.92789951999999998        0.0000000000000000     
   7.2464680000000004E-002  0.82554053000000005        0.0000000000000000     
  0.30731587999999999       0.50885354999999999        0.0000000000000000     
  0.59033407999999998       0.22171178999999999        0.0000000000000000     
  0.40109191999999999       0.78725542000000004        0.0000000000000000     
  0.35420917000000002       0.63754104000000000        0.0000000000000000     
  0.15983976999999999       0.56665573000000002        0.0000000000000000     
  0.84108459999999996       0.56757886999999996        0.0000000000000000     
  0.83902096000000004       0.43344338999999998        0.0000000000000000     
  0.43230028999999998       0.16004268999999999        0.0000000000000000     
  0.57536027999999995       0.83041363999999995        0.0000000000000000     
  0.15771898000000001       0.42747892999999998        0.0000000000000000     
  0.34021692999999997       0.34221559000000001        0.0000000000000000     
  0.56002271999999997       0.57501117999999996        0.0000000000000000     
  0.65344329000000001       0.78147597999999996        0.0000000000000000     
   0.0000000000000000        0.0000000000000000        0.0000000000000000     
   1.0000000000000000        0.0000000000000000        0.0000000000000000     
   1.0000000000000000        1.0000000000000000        0.0000000000000000     
   0.0000000000000000        1.0000000000000000        0.0000000000000000     
  0.11111111000000000        0.0000000000000000        0.0000000000000000     
  0.22222222000000000        0.0000000000000000        0.0000000000000000     
  0.33333332999999998        0.0000000000000000        0.0000000000000000     
  0.44444444000000000        0.0000000000000000        0.0000000000000000     
  0.55555555999999995        0.0000000000000000        0.0000000000000000     
  0.66666667000000002        0.0000000000000000        0.0000000000000000     
  0.77777777999999997        0.0000000000000000        0.0000000000000000     
  0.88888889000000004        0.0000000000000000        0.0000000000000000     
   1.0000000000000000       0.11111111000000000        0.0000000000000000     
   1.0000000000000000       0.22222222000000000        0.0000000000000000     
   1.0000000000000000       0.33333332999999998        0.0000000000000000     
   1.0000000000000000       0.44444444000000000        0.0000000000000000     
   1.0000000000000000       0.55555555999999995        0.0000000000000000     
   1.0000000000000000       0.66666667000000002        0.0000000000000000     
   1.0000000000000000       0.77777777999999997        0.0000000000000000     
   1.0000000000000000       0.88888889000000004        0.0000000000000000     
  0.88888889000000004        1.0000000000000000        0.0000000000000000     
  0.77777777999999997        1.0000000000000000        0.0000000000000000     
  0.66666667000000002        1.0000000000000000        0.0000000000000000     
  0.55555555999999995        1.0000000000000000        0.0000000000000000     
  0.44444444000000000        1.0000000000000000        0.0000000000000000     
  0.33333332999999998        1.0000000000000000        0.0000000000000000     
  0.22222222000000000        1.0000000000000000        0.0000000000000000     
  0.11111111000000000        1.0000000000000000        0.0000000000000000     
   0.0000000000000000       0.11111111000000000        0.0000000000000000     
   0.0000000000000000       0.22222222000000000        0.0000000000000000     
[...]
 CELL_DATA         354
 SCALARS E float
 LOOKUP_TABLE default
    0.67247031634359366592E+00
    0.60606171951249898644E+00
    0.62751932212521988053E+00
    0.58740644036860933941E+00
    0.67506826298147348808E+00
    0.61980775524181497271E+00
    0.69240664014551911443E+00
    0.63676442074095096491E+00
    0.67747946146519755217E+00
    0.65840066047736833799E+00
    0.63821098989383717726E+00
    0.65134156258938780137E+00
    0.62549747677833411608E+00
    0.63216956534416657298E+00
    0.64145785510042174771E+00
    0.63788731355547079183E+00
    0.65156380370629418675E+00
    0.65469051803289579627E+00
    0.71181497391440073930E+00
    0.70271522608242842356E+00
    0.65133130695189567216E+00
    0.67463749237402914627E+00
    0.67108880794302638861E+00
    0.64482400284155050318E+00
    0.66672823485643839536E+00
    0.66350303510996244682E+00
    0.67157498445204244497E+00
    0.69438330949988880114E+00
    0.61594702363184405947E+00
    0.62378735836236709478E+00
    0.66083196802447308205E+00
    0.62791137529537832673E+00
    0.67318387661818457346E+00
    0.66952082137057489231E+00
    0.64519764143024671554E+00
    0.65727414277109796892E+00
    0.63888958745792723271E+00
    0.64148065421074229597E+00
    0.65533458964113622258E+00
    0.64983762223589214280E+00
    0.65275671346422969865E+00
    0.65513326972882079957E+00
    0.65675834674388300360E+00
    0.65732010454855904769E+00
    0.65933674937673292238E+00
    0.65459719675351557555E+00
    0.64071346010995711140E+00
    0.64448147278339473765E+00
    0.63431037931135403340E+00
    0.62600679010944304537E+00
    0.59985989626331348568E+00
    0.60500429060352534094E+00
    0.67693760233536637294E+00
    0.67902087368630226205E+00
    0.67439211311137614580E+00
    0.67597220306971950166E+00
    0.65605816085225676648E+00
    0.65864034256478620755E+00
    0.67057181983226121780E+00
    0.67104536397075509324E+00
    0.67041518551437218054E+00
    0.66835583019427613483E+00
    0.65287485919710119830E+00
    0.66133812304445838137E+00
    0.64702465517349760926E+00
    0.63644399984525179548E+00
    0.59464256612958810155E+00
    0.61495126199665672839E+00
    0.59631004467808490510E+00
    0.63022801872928047029E+00
    0.65032266364383584101E+00
    0.60142078057949943659E+00
    0.65219987126003031719E+00
    0.64234036909695357842E+00
    0.66499793732584078221E+00
    0.65604714045555057034E+00
    0.65190964638397086439E+00
    0.64800305197359042708E+00
    0.73192171393032579019E+00
    0.71424230924689491307E+00
    0.60929648738111108486E+00
    0.68245703874531105093E+00
    0.73387244550935704090E+00
    0.62934962152695250737E+00
    0.61039474533621318475E+00
    0.58892353214212178614E+00
    0.41184111916507365470E+00
    0.62749206885271158196E+00
    0.59668945574809573174E+00
    0.62848087903242566554E+00
    0.53173998568430236311E+00
    0.68242248646250414090E+00
    0.66101970187976266669E+00
    0.63529921316725224134E+00
    0.67497268230746865214E+00
    0.62142454161641447197E+00
    0.76674067605032636408E+00
    0.66769425305255769576E+00
    0.64603505467109323401E+00
    0.65694084917029083037E+00
    0.65357211359839428866E+00
    0.65147456597816577606E+00
    0.66649549807711305771E+00
    0.60759447614629635837E+00
    0.60228958802884713375E+00
    0.61353679895917934140E+00
    0.62581571766672805524E+00
    0.58726551239634261492E+00
    0.74826019196746063056E+00
    0.67181007766553146876E+00
    0.68767642759210323433E+00
    0.66806592199713077385E+00
    0.63158451706935547776E+00
    0.62228658946953396836E+00
    0.66531403742705974569E+00
    0.65052536891375067896E+00
    0.74953044406393443122E+00
    0.70908776226054093250E+00
    0.72432232125145623591E+00
    0.60990893514969790612E+00
    0.76876184799677960147E+00
    0.67198770785394290606E+00
    0.67035664563458907672E+00
    0.66910029782044355695E+00
    0.67752270140223636030E+00
    0.67348159898217851982E+00
    0.66240532409719143914E+00
    0.67046823572454261608E+00
    0.64021062213298485233E+00
    0.72991463823395352772E+00
    0.62750611499433528451E+00
    0.72385407167897131142E+00
    0.74556714612108487827E+00
    0.57424120494739661069E+00
    0.68092159848943822897E+00
    0.65376577864973928200E+00
    0.64208824714730616812E+00
    0.66300517559174787507E+00
    0.64657887992353679785E+00
    0.62551268167815265997E+00
    0.64921105555069613668E+00
    0.64740379153115945599E+00
    0.65947199662130639997E+00
    0.65470047192636049438E+00
    0.64022209979677335845E+00
    0.67434002963264882968E+00
    0.67183691980165771707E+00
    0.64191523046708531819E+00
    0.64500649654851160975E+00
    0.62396613382838350681E+00
    0.58081654419592054772E+00
    0.62876909615359721784E+00
    0.60749216000971373308E+00
    0.62417113079273534026E+00
    0.60893864231815320043E+00
    0.65363906196702314944E+00
    0.64943546136649632494E+00
    0.64164545203802769713E+00
    0.65207387234881841742E+00
    0.66699418804322774257E+00
    0.70977086075094786288E+00
    0.64923871033695867983E+00
    0.65147463527057347665E+00
    0.64520495428737778543E+00
    0.72765242615480874022E+00
    0.68631040158387612848E+00
    0.68925137675088354872E+00
    0.69184713661129615403E+00
    0.67791135411386316267E+00
    0.67466748978637602896E+00
    0.64851792245771999745E+00
    0.63355315782670751368E+00
    0.65757184572165594538E+00
    0.64535066903384452619E+00
    0.62425763727539740344E+00
    0.67812670062983038122E+00
    0.73994558368398100079E+00
    0.72333609115628549890E+00
    0.65241934123132661050E+00
    0.72134334526759180672E+00
    0.62303602069827801468E+00
    0.64440662221813804766E+00
    0.63618400130451013830E+00
    0.64783517770283061132E+00
    0.66284102643273878908E+00
    0.63957140603740580964E+00
    0.72467561065435359691E+00
    0.67270530366988823268E+00
    0.70855876332119327454E+00
    0.72881407599791192542E+00
    0.57394194544604082431E+00
    0.60392269665218389907E+00
    0.56390570938926098954E+00
    0.59918341824533583040E+00
    0.56529423765102815302E+00
    0.68811540299246620744E+00
    0.62623458083895466864E+00
    0.67394877705616251795E+00
    0.69301978487508419935E+00
    0.63820797566321185723E+00
    0.66319005726837332304E+00
    0.67646443212793960775E+00
    0.67765341377318710769E+00
    0.66953175492274108471E+00
    0.66860984745079043989E+00
    0.50343331950000569375E+00
    0.63239787857793272607E+00
    0.60189499015561764850E+00
    0.60038754104768521369E+00
    0.62743123544100709577E+00
    0.72402499676610021506E+00
    0.72423914697736280210E+00
    0.66490037732012552407E+00
    0.66031126461769140690E+00
    0.64955224076528228494E+00
    0.64290685118117962826E+00
    0.65346585586902194986E+00
    0.64436438697818576582E+00
    0.64631078457460844344E+00
    0.44411715333709977926E+00
    0.34544943369716868409E+00
    0.33285791579705703569E+00
    0.71124714331406946322E+00
    0.57693153612463077273E+00
    0.77222235152194196317E+00
    0.66594033849161737848E+00
    0.67331201619888314536E+00
    0.67701805141625259754E+00
    0.67940974659782871203E+00
    0.68308900087879975693E+00
    0.64587662037362947309E+00
    0.60707607988177569869E+00
    0.69287222571516482450E+00
    0.70938143829108135652E+00
    0.68893452684351241810E+00
    0.71116933896494760603E+00
    0.65642862642911692372E+00
    0.61237538465633201135E+00
    0.63913040702509738011E+00
    0.61122467657453016798E+00
    0.60079621058812127110E+00
    0.73642969117797174583E+00
    0.60700952090023307939E+00
    0.65355484838506816558E+00
    0.61272818120491834293E+00
    0.65161011392262002673E+00
    0.68289790884262413506E+00
    0.67586636676200151364E+00
    0.66183783208117719088E+00
    0.74854852276619809892E+00
    0.62011214706375861194E+00
    0.59339743410362899567E+00
    0.68299801511093582995E+00
    0.65499835391568295151E+00
    0.70947469511601579661E+00
    0.65620776378567891030E+00
    0.64998487247434755254E+00
    0.65670150601160837134E+00
    0.64308225096405724486E+00
    0.66195802951479043585E+00
    0.67284750908111834455E+00
    0.61117343788388478476E+00
    0.63450137502381298571E+00
    0.65014207934313317239E+00
    0.67828446434422451361E+00
    0.67796314674763569208E+00
    0.64912509310275900987E+00
    0.67216391059310176548E+00
    0.66246857745744291979E+00
    0.63968494906422757040E+00
    0.65448564836369671482E+00
    0.60082503325022984519E+00
    0.59813705800413652369E+00
    0.61508619472705805542E+00
    0.71961274392048957260E+00
    0.65977185809707494801E+00
    0.65799440753582705277E+00
    0.67676084857758600499E+00
    0.62458875070196784307E+00
    0.72104491304424545017E+00
    0.77267889050395444084E+00
    0.63754375148347441904E+00
    0.61045940226024697495E+00
    0.61607152274461496333E+00
    0.54000248389820104666E+00
    0.65023840284511469356E+00
    0.64887311776623823878E+00
    0.66314284631169762019E+00
    0.64031337026205814578E+00
    0.65672651689402472552E+00
    0.66595961942960535396E+00
    0.69441294075454718104E+00
    0.70249165322890583241E+00
    0.61703927016351323154E+00
    0.62494804488916899654E+00
    0.68727865473417970588E+00
    0.64360404835782458743E+00
    0.64144659471559251074E+00
    0.60028015307592963445E+00
    0.68361703790170869066E+00
    0.67762815434968470818E+00
    0.63016295947617040341E+00
    0.66921234737842172358E+00
    0.60753322047982960541E+00
    0.70756484152834586698E+00
    0.66041137069084454581E+00
    0.73060323041290919921E+00
    0.65666876325039080786E+00
    0.68657591359510616869E+00
    0.68852114288170807033E+00
    0.74623996788238389222E+00
    0.65650794367747555835E+00
    0.63108847462034156628E+00
    0.65725858576139295497E+00
    0.64507825901032234128E+00
    0.65573842829045736469E+00
    0.47954145070979192766E+00
    0.64997398122156335720E+00
    0.67609347521628770927E+00
    0.66262777930430727391E+00
    0.68640923038007728429E+00
    0.61869759105183741443E+00
    0.62132995020303249945E+00
    0.61493799542239957479E+00
    0.57850730840885988826E+00
    0.56878439573730987799E+00
    0.62755848093267929677E+00
    0.68444793109921464591E+00
    0.64651228126372195515E+00
    0.63245831905698990383E+00
    0.62974351914645443351E+00
    0.64088265644559871959E+00
    0.67643361345850827604E+00
    0.66012565464582284580E+00
    0.68359415148809477003E+00
    0.67693307912628841727E+00
    0.64406451176796153391E+00
    0.63368261653403856748E+00
    0.66756283612906630598E+00
    0.65490031165255380152E+00
    0.63102102728101105988E+00
    0.64127717397998140747E+00
    0.64619464011379845747E+00
    0.64456620267155662063E+00
    0.63789457663557291855E+00
    0.62462822149530361493E+00
    0.60552525464596862470E+00
    0.66867422822140087924E+00
    0.66854602406954366511E+00
    0.66888571857776990548E+00
    0.66535721261696212370E+00
    0.65781959457725469598E+00
    0.63980204828562792230E+00
    0.61491261516786344110E+00
