# vtk DataFile Version 3.0
LAPLACIEN  2D
ASCII
DATASET UNSTRUCTURED_GRID
 POINTS         391  float
  0.50371505999999999       0.50367786999999997        0.0000000000000000     
  0.29013556000000001       0.29014535000000002        0.0000000000000000     
  0.70165584999999997       0.71206597999999999        0.0000000000000000     
  0.70304188999999995       0.30176619999999998        0.0000000000000000     
  0.30920671999999999       0.71149227999999998        0.0000000000000000     
  0.79044983999999996       0.49884783999999999        0.0000000000000000     
  0.49102621000000002       0.20968644000000000        0.0000000000000000     
  0.49912957000000002       0.77208717000000004        0.0000000000000000     
  0.21724072999999999       0.48989389000000000        0.0000000000000000     
  0.83255933999999998       0.83046598000000005        0.0000000000000000     
  0.16646774000000000       0.17015694000000001        0.0000000000000000     
  0.83054514999999995       0.16736480000000001        0.0000000000000000     
  0.16953130999999999       0.83265739000000005        0.0000000000000000     
  0.42166445000000002       0.36345201999999999        0.0000000000000000     
  0.64462200999999997       0.56347807999999999        0.0000000000000000     
  0.35324633999999999       0.56311191000000005        0.0000000000000000     
  0.65456411000000003       0.84856860999999995        0.0000000000000000     
  0.35141477999999998       0.15563974000000000        0.0000000000000000     
  0.15290967000000000       0.35206625000000003        0.0000000000000000     
  0.82942241000000005       0.34936866000000000        0.0000000000000000     
  0.84390527000000004       0.64441694999999999        0.0000000000000000     
  0.63699174999999997       0.14284276000000001        0.0000000000000000     
  0.15620682999999999       0.64648446999999998        0.0000000000000000     
  0.36426062999999997       0.85756310999999996        0.0000000000000000     
  0.63489340999999999       0.40519052000000000        0.0000000000000000     
  0.52518872999999999       0.65957078000000002        0.0000000000000000     
  0.32158959999999998       0.42298103999999997        0.0000000000000000     
  0.58861710000000000       0.31711036999999997        0.0000000000000000     
  0.42078418000000001       0.69497151999999995        0.0000000000000000     
  0.48608786999999998       0.89334152000000000        0.0000000000000000     
   9.7084320000000002E-002  0.50000000000000000        0.0000000000000000     
  0.90291568000000000       0.50000000000000000        0.0000000000000000     
  0.51392453000000005       0.10668648999999999        0.0000000000000000     
  0.59792566999999996       0.73122754000000001        0.0000000000000000     
  0.74510058999999995       0.41124730999999998        0.0000000000000000     
  0.73212551999999997       0.90191560000000004        0.0000000000000000     
   9.7784830000000003E-002  0.26957329000000002        0.0000000000000000     
  0.26711221000000002        9.8671499999999995E-002   0.0000000000000000     
  0.90191560000000004       0.26787448000000003        0.0000000000000000     
  0.90118569000000004       0.73039821000000005        0.0000000000000000     
  0.73122947000000005        9.8017859999999998E-002   0.0000000000000000     
   9.8084400000000002E-002  0.73212551999999997        0.0000000000000000     
  0.26957329000000002       0.90221516999999996        0.0000000000000000     
  0.39283522999999998       0.25360379000000000        0.0000000000000000     
  0.74480864000000002       0.60495284999999999        0.0000000000000000     
  0.25505132000000003       0.60593640999999998        0.0000000000000000     
  0.52159297999999998       0.40671636000000000        0.0000000000000000     
  0.40768852000000000       0.47699891000000000        0.0000000000000000     
   9.1467049999999994E-002   9.1876959999999994E-002   0.0000000000000000     
  0.90842484999999995       0.90819225000000003        0.0000000000000000     
  0.90820104999999995        9.1566729999999999E-002   0.0000000000000000     
   9.1807449999999999E-002  0.90843574000000005        0.0000000000000000     
  0.27098960000000000       0.20527094000000001        0.0000000000000000     
  0.73457293999999995       0.79835387000000002        0.0000000000000000     
  0.79817773000000003       0.25713470999999999        0.0000000000000000     
  0.20747797000000001       0.72863946000000002        0.0000000000000000     
  0.20175195000000001       0.27583914999999998        0.0000000000000000     
  0.79603889000000005       0.72159035000000005        0.0000000000000000     
  0.71761666000000002       0.19748431999999999        0.0000000000000000     
  0.28462607000000001       0.80251899999999998        0.0000000000000000     
  0.69134598999999997       0.49261972999999998        0.0000000000000000     
  0.44720578999999999       0.58582935999999997        0.0000000000000000     
  0.24242269999999999       0.37228174000000003        0.0000000000000000     
  0.38265623999999998       0.93072131999999996        0.0000000000000000     
  0.60971754000000000       0.91988369000000003        0.0000000000000000     
   7.9163609999999995E-002  0.60979116000000000        0.0000000000000000     
  0.92010649000000000       0.61081183999999999        0.0000000000000000     
  0.61954008999999999        7.1530830000000004E-002   0.0000000000000000     
  0.91882012999999996       0.38917363999999999        0.0000000000000000     
  0.39086346000000000        8.0652249999999995E-002   0.0000000000000000     
   7.9183480000000001E-002  0.38966213000000000        0.0000000000000000     
  0.59114111999999996       0.49294315000000000        0.0000000000000000     
  0.63337980999999999       0.64485914000000000        0.0000000000000000     
  0.50012352000000004       0.29676539000000002        0.0000000000000000     
  0.82552601000000003       0.92753492000000004        0.0000000000000000     
  0.92774772999999999       0.82498556999999995        0.0000000000000000     
   7.1970870000000006E-002  0.17510291000000000        0.0000000000000000     
  0.17422821999999999        7.2635640000000001E-002   0.0000000000000000     
  0.82510813000000005        7.2134840000000006E-002   0.0000000000000000     
  0.92754665000000003       0.17446275999999999        0.0000000000000000     
  0.17501022999999999       0.92789951999999998        0.0000000000000000     
   7.2464680000000004E-002  0.82554053000000005        0.0000000000000000     
  0.30731587999999999       0.50885354999999999        0.0000000000000000     
  0.59033407999999998       0.22171178999999999        0.0000000000000000     
  0.40109191999999999       0.78725542000000004        0.0000000000000000     
  0.35420917000000002       0.63754104000000000        0.0000000000000000     
  0.15983976999999999       0.56665573000000002        0.0000000000000000     
  0.84108459999999996       0.56757886999999996        0.0000000000000000     
  0.83902096000000004       0.43344338999999998        0.0000000000000000     
  0.43230028999999998       0.16004268999999999        0.0000000000000000     
  0.57536027999999995       0.83041363999999995        0.0000000000000000     
  0.15771898000000001       0.42747892999999998        0.0000000000000000     
  0.34021692999999997       0.34221559000000001        0.0000000000000000     
  0.56002271999999997       0.57501117999999996        0.0000000000000000     
  0.65344329000000001       0.78147597999999996        0.0000000000000000     
   0.0000000000000000        0.0000000000000000        0.0000000000000000     
   1.0000000000000000        0.0000000000000000        0.0000000000000000     
   1.0000000000000000        1.0000000000000000        0.0000000000000000     
   0.0000000000000000        1.0000000000000000        0.0000000000000000     
  0.11111111000000000        0.0000000000000000        0.0000000000000000     
  0.22222222000000000        0.0000000000000000        0.0000000000000000     
  0.33333332999999998        0.0000000000000000        0.0000000000000000     
  0.44444444000000000        0.0000000000000000        0.0000000000000000     
  0.55555555999999995        0.0000000000000000        0.0000000000000000     
  0.66666667000000002        0.0000000000000000        0.0000000000000000     
  0.77777777999999997        0.0000000000000000        0.0000000000000000     
  0.88888889000000004        0.0000000000000000        0.0000000000000000     
   1.0000000000000000       0.11111111000000000        0.0000000000000000     
   1.0000000000000000       0.22222222000000000        0.0000000000000000     
   1.0000000000000000       0.33333332999999998        0.0000000000000000     
   1.0000000000000000       0.44444444000000000        0.0000000000000000     
   1.0000000000000000       0.55555555999999995        0.0000000000000000     
   1.0000000000000000       0.66666667000000002        0.0000000000000000     
   1.0000000000000000       0.77777777999999997        0.0000000000000000     
   1.0000000000000000       0.88888889000000004        0.0000000000000000     
  0.88888889000000004        1.0000000000000000        0.0000000000000000     
  0.77777777999999997        1.0000000000000000        0.0000000000000000     
  0.66666667000000002        1.0000000000000000        0.0000000000000000     
  0.55555555999999995        1.0000000000000000        0.0000000000000000     
  0.44444444000000000        1.0000000000000000        0.0000000000000000     
  0.33333332999999998        1.0000000000000000        0.0000000000000000     
  0.22222222000000000        1.0000000000000000        0.0000000000000000     
  0.11111111000000000        1.0000000000000000        0.0000000000000000     
   0.0000000000000000       0.11111111000000000        0.0000000000000000     
   0.0000000000000000       0.22222222000000000        0.0000000000000000     
[...]
 CELL_DATA         354
 SCALARS E float
 LOOKUP_TABLE default
    0.69301732071564148274E+00
    0.68235394336656751690E+00
    0.63777808424188142666E+00
    0.58362178227754313298E+00
    0.73683734041234294487E+00
    0.72394813578271799415E+00
    0.67529171381005692609E+00
    0.70362968374528467308E+00
    0.67757076645562319683E+00
    0.66192906250809901980E+00
    0.59470091669569169479E+00
    0.62229224953831163702E+00
    0.59053205241180484197E+00
    0.58274675219927229985E+00
    0.61209695024545984765E+00
    0.60015326470596508379E+00
    0.61632877583517853282E+00
    0.65664237737194752764E+00
    0.71570022161844193409E+00
    0.68861937616980428700E+00
    0.69505887972877788972E+00
    0.68873631334362872547E+00
    0.65481379744669987453E+00
    0.67124678253642111603E+00
    0.64404753913318701919E+00
    0.65558744433382232231E+00
    0.68429577068877800450E+00
    0.67503403522457849917E+00
    0.68250668141890413754E+00
    0.69729675307391814076E+00
    0.71104430702879273252E+00
    0.71138798667050118230E+00
    0.69419816806272194309E+00
    0.69537699668055830138E+00
    0.68745175068180319755E+00
    0.69427580644463071646E+00
    0.65690398046952536149E+00
    0.66509153424977585090E+00
    0.66797856012562317751E+00
    0.66559333492375016839E+00
    0.67091116255577432081E+00
    0.67639980751530748293E+00
    0.67050580342491183927E+00
    0.67577917067252069039E+00
    0.66715617774992708178E+00
    0.66372787352780993064E+00
    0.65559744384452689481E+00
    0.66060007811659082755E+00
    0.64333081908791556192E+00
    0.63471182661817815429E+00
    0.61581045067369144519E+00
    0.62782233722555069733E+00
    0.70128081019836385757E+00
    0.70598212281113292832E+00
    0.69302826278692253315E+00
    0.69798423793868424880E+00
    0.69005025847227163815E+00
    0.69579693802941267045E+00
    0.70059194062155771832E+00
    0.70162157248285583755E+00
    0.69277375187640233278E+00
    0.69345935456615082071E+00
    0.67832423848594658455E+00
    0.69100240559753056679E+00
    0.65984644807820624912E+00
    0.65116397934557090910E+00
    0.62816602113644304239E+00
    0.64146098532475981369E+00
    0.63020383710112637399E+00
    0.67447562558434026592E+00
    0.72185507058790454593E+00
    0.64342125763912139114E+00
    0.70704476031384233536E+00
    0.64117074633203963163E+00
    0.68805814347086624583E+00
    0.73419800388751321751E+00
    0.73845982884772298771E+00
    0.69303321864686451281E+00
    0.72249424281740104448E+00
    0.71442033805692828352E+00
    0.74310004936156226485E+00
    0.72989564266288509131E+00
    0.73666654819855725833E+00
    0.71586876120257014744E+00
    0.66308074523575577519E+00
    0.73816761743284764474E+00
    0.83287921352034166578E+00
    0.68042746185483138355E+00
    0.66429759635786822525E+00
    0.69695308429133417949E+00
    0.76822981111637311802E+00
    0.77008591866495934575E+00
    0.76314671793341193329E+00
    0.75345454862049776601E+00
    0.74771320087172055135E+00
    0.75525774917102739270E+00
    0.77270467836340805956E+00
    0.72988509510633703403E+00
    0.66519972631492008119E+00
    0.70872394186468490318E+00
    0.70288327262778449445E+00
    0.69268625486504220579E+00
    0.70715224340953741766E+00
    0.68798219189159981468E+00
    0.69282174626864811984E+00
    0.72320024315507236423E+00
    0.71461941061336264891E+00
    0.65603241432710768244E+00
    0.74283586042232629953E+00
    0.73759264326359663677E+00
    0.76716325279378472235E+00
    0.73850678795873614391E+00
    0.75659810677947358926E+00
    0.74468662635724613974E+00
    0.74697084921801604196E+00
    0.74887346908749385932E+00
    0.74947281319803260580E+00
    0.72445916009625532794E+00
    0.75242717642879852757E+00
    0.72235543938336788106E+00
    0.72719913377316880432E+00
    0.73361838047223693060E+00
    0.73810685691698096900E+00
    0.71413050265950561712E+00
    0.76030884622107242077E+00
    0.75737376691788016458E+00
    0.70360027407980219039E+00
    0.71669070145463265042E+00
    0.73457512331209517953E+00
    0.72903776245547391444E+00
    0.73157335391264899371E+00
    0.75228203454198960820E+00
    0.75380303528798975332E+00
    0.71918094297134915749E+00
    0.71845089057252675691E+00
    0.70758157304093449724E+00
    0.68213762238296016260E+00
    0.69926242061811216821E+00
    0.71221798516836865023E+00
    0.69832088087992705283E+00
    0.67170644654347300140E+00
    0.67866769244103120062E+00
    0.71119009460615456586E+00
    0.70294062602511697690E+00
    0.67717181892365896356E+00
    0.74344879191538604246E+00
    0.73840697065242499875E+00
    0.67441703410118125639E+00
    0.67957450842969202576E+00
    0.66447496104176762000E+00
    0.65636061413970625544E+00
    0.70680242078081045864E+00
    0.67769896852523037190E+00
    0.70820437369818189932E+00
    0.64452957960431889184E+00
    0.74849135163018210015E+00
    0.68779796470376786122E+00
    0.65435574578979838201E+00
    0.73963799123550644232E+00
    0.70592141711646549940E+00
    0.77203620863204402980E+00
    0.66116562622661589899E+00
    0.69468463966473836813E+00
    0.71882420855956608019E+00
    0.73765993866815504632E+00
    0.76567462457889823302E+00
    0.76111743092138606226E+00
    0.76891181002660280441E+00
    0.74369918968661141712E+00
    0.74857356565300259277E+00
    0.75324514510126583389E+00
    0.67416897011974219467E+00
    0.71152739338679582559E+00
    0.73860457401544277189E+00
    0.67739063004329347351E+00
    0.76915726568917874850E+00
    0.73384152447576578293E+00
    0.71164040861258315296E+00
    0.77378132472505534167E+00
    0.73636732463367660095E+00
    0.64821350383764164693E+00
    0.72506696117947899705E+00
    0.67828602344150767944E+00
    0.73232047529363153426E+00
    0.67673833836189356550E+00
    0.77475533898305914970E+00
    0.71488462569657440504E+00
    0.74070192423659841907E+00
    0.77073305904105482433E+00
    0.72510636872490819016E+00
    0.65897264563354351896E+00
    0.69418731264067368159E+00
    0.64057401366192845416E+00
    0.65486697400913662648E+00
    0.67380288346169980862E+00
    0.75987166396393956980E+00
    0.72783481629024060489E+00
    0.73615517737233227002E+00
    0.76569329866237800797E+00
    0.73885313064146584949E+00
    0.71797869705293215770E+00
    0.74009375335874372226E+00
    0.72571253060474139041E+00
    0.71895177792137521244E+00
    0.73142179223508518859E+00
    0.79788809544121563899E+00
    0.66317770554585453446E+00
    0.70990839188235510537E+00
    0.66141909663583942081E+00
    0.66868483664569899894E+00
    0.73827165592391041926E+00
    0.72852668544363974323E+00
    0.71819453676988920243E+00
    0.73152623469567290559E+00
    0.72295609833722418447E+00
    0.67040078637880129442E+00
    0.74198684505932055444E+00
    0.70679235941884854810E+00
    0.69961557851313638245E+00
    0.80720825513769267623E+00
    0.83878142598353067072E+00
    0.84720426759985967280E+00
    0.71705850951727190257E+00
    0.74640553959867506073E+00
    0.73794559900889677984E+00
    0.69757466181749561152E+00
    0.74395758015407364994E+00
    0.76380365268544736512E+00
    0.76090513806838233624E+00
    0.75059884154911882259E+00
    0.76603248867590312265E+00
    0.74765151145699093593E+00
    0.77464801559300122680E+00
    0.74620108926548778250E+00
    0.75027140342897247205E+00
    0.73267235496000693296E+00
    0.75884380632672909783E+00
    0.62457432948786850702E+00
    0.69964858258801410074E+00
    0.73043241475328302137E+00
    0.69529569506078736651E+00
    0.73473278194954139142E+00
    0.74404997637817316125E+00
    0.72638258094177787783E+00
    0.66132217455659636496E+00
    0.64042184594461981639E+00
    0.75738236351805188207E+00
    0.75207600438427402167E+00
    0.70416137098104814029E+00
    0.75369480365715901815E+00
    0.76366279387738011941E+00
    0.72569018578819921572E+00
    0.74352959851675037850E+00
    0.75814326116910857323E+00
    0.70540708146201502871E+00
    0.72686479102858259083E+00
    0.72417299199929119347E+00
    0.69150230960130176783E+00
    0.76258226673125140138E+00
    0.77550708448476735057E+00
    0.71202815763171312113E+00
    0.69430575813547368291E+00
    0.71180628863184591815E+00
    0.65920894617273517735E+00
    0.74559575986782156143E+00
    0.75307158113274152988E+00
    0.68164564731544807774E+00
    0.73374326591808092246E+00
    0.72610940448284266857E+00
    0.67281312844565666076E+00
    0.66182852121529744949E+00
    0.71952764261934043510E+00
    0.66131912021310534922E+00
    0.63406456758862006495E+00
    0.71515116895675867603E+00
    0.73271393040810184338E+00
    0.73834948703526692704E+00
    0.69981118539299336234E+00
    0.73611975566932930093E+00
    0.77841747175148690019E+00
    0.76885380675033054843E+00
    0.72606512647026366647E+00
    0.67757184864652386658E+00
    0.64262614217121860616E+00
    0.75744165853146883105E+00
    0.69114393663929241107E+00
    0.66508003747690691565E+00
    0.74075620475730297176E+00
    0.74192229024985545394E+00
    0.70493370770020158389E+00
    0.71665480913523105233E+00
    0.72046203012516218944E+00
    0.72180739528107673575E+00
    0.66595968414323980511E+00
    0.67079506957131140865E+00
    0.74172143401370282945E+00
    0.75283824406118615702E+00
    0.75470905185189340880E+00
    0.67691212480340057223E+00
    0.75134819921252482544E+00
    0.72782041171815337055E+00
    0.67572314320654747188E+00
    0.72812084787183406487E+00
    0.65526674529027417737E+00
    0.70461871922058083584E+00
    0.72266689391791461006E+00
    0.69540422883886510164E+00
    0.72551243022282019268E+00
    0.76054721088575238941E+00
    0.75694782995761900057E+00
    0.75053908629481069781E+00
    0.73966074937023251756E+00
    0.71324534410482132163E+00
    0.76945355665104619991E+00
    0.67610478699348675047E+00
    0.73607061235962112367E+00
    0.77277553457654224456E+00
    0.74679884710637012279E+00
    0.71318825805923968808E+00
    0.67081788769310379816E+00
    0.70112421796290658182E+00
    0.67527309908945309935E+00
    0.64675814897966921180E+00
    0.61184293187254090718E+00
    0.56520196099574393500E+00
    0.57859310368439487160E+00
    0.70919249281053609035E+00
    0.65835549062461895531E+00
    0.61463052124891048855E+00
    0.57485036254654020560E+00
    0.55813905742632008433E+00
    0.58756125596271702172E+00
    0.66144798090118839262E+00
    0.65882174864255393931E+00
    0.63220221885528771200E+00
    0.63954300260129848255E+00
    0.66155654207463110428E+00
    0.68036630503450534757E+00
    0.68395815766254386414E+00
    0.68187153624230822935E+00
    0.63346435550002855308E+00
    0.63633435680354644148E+00
    0.64083823618666180266E+00
    0.63753765654732186263E+00
    0.63244387488388476015E+00
    0.61714060019095584586E+00
    0.60133964628070812886E+00
    0.67595681076118874220E+00
    0.66741434269192256856E+00
    0.66847182160440521415E+00
    0.66919341174829805041E+00
    0.66291181291354273064E+00
    0.64254916760350444527E+00
    0.62312980492966496548E+00
