# vtk DataFile Version 3.0
LAPLACIEN  2D
ASCII
DATASET UNSTRUCTURED_GRID
 POINTS         391  float
  0.50371505999999999       0.50367786999999997        0.0000000000000000     
  0.29013556000000001       0.29014535000000002        0.0000000000000000     
  0.70165584999999997       0.71206597999999999        0.0000000000000000     
  0.70304188999999995       0.30176619999999998        0.0000000000000000     
  0.30920671999999999       0.71149227999999998        0.0000000000000000     
  0.79044983999999996       0.49884783999999999        0.0000000000000000     
  0.49102621000000002       0.20968644000000000        0.0000000000000000     
  0.49912957000000002       0.77208717000000004        0.0000000000000000     
  0.21724072999999999       0.48989389000000000        0.0000000000000000     
  0.83255933999999998       0.83046598000000005        0.0000000000000000     
  0.16646774000000000       0.17015694000000001        0.0000000000000000     
  0.83054514999999995       0.16736480000000001        0.0000000000000000     
  0.16953130999999999       0.83265739000000005        0.0000000000000000     
  0.42166445000000002       0.36345201999999999        0.0000000000000000     
  0.64462200999999997       0.56347807999999999        0.0000000000000000     
  0.35324633999999999       0.56311191000000005        0.0000000000000000     
  0.65456411000000003       0.84856860999999995        0.0000000000000000     
  0.35141477999999998       0.15563974000000000        0.0000000000000000     
  0.15290967000000000       0.35206625000000003        0.0000000000000000     
  0.82942241000000005       0.34936866000000000        0.0000000000000000     
  0.84390527000000004       0.64441694999999999        0.0000000000000000     
  0.63699174999999997       0.14284276000000001        0.0000000000000000     
  0.15620682999999999       0.64648446999999998        0.0000000000000000     
  0.36426062999999997       0.85756310999999996        0.0000000000000000     
  0.63489340999999999       0.40519052000000000        0.0000000000000000     
  0.52518872999999999       0.65957078000000002        0.0000000000000000     
  0.32158959999999998       0.42298103999999997        0.0000000000000000     
  0.58861710000000000       0.31711036999999997        0.0000000000000000     
  0.42078418000000001       0.69497151999999995        0.0000000000000000     
  0.48608786999999998       0.89334152000000000        0.0000000000000000     
   9.7084320000000002E-002  0.50000000000000000        0.0000000000000000     
  0.90291568000000000       0.50000000000000000        0.0000000000000000     
  0.51392453000000005       0.10668648999999999        0.0000000000000000     
  0.59792566999999996       0.73122754000000001        0.0000000000000000     
  0.74510058999999995       0.41124730999999998        0.0000000000000000     
  0.73212551999999997       0.90191560000000004        0.0000000000000000     
   9.7784830000000003E-002  0.26957329000000002        0.0000000000000000     
  0.26711221000000002        9.8671499999999995E-002   0.0000000000000000     
  0.90191560000000004       0.26787448000000003        0.0000000000000000     
  0.90118569000000004       0.73039821000000005        0.0000000000000000     
  0.73122947000000005        9.8017859999999998E-002   0.0000000000000000     
   9.8084400000000002E-002  0.73212551999999997        0.0000000000000000     
  0.26957329000000002       0.90221516999999996        0.0000000000000000     
  0.39283522999999998       0.25360379000000000        0.0000000000000000     
  0.74480864000000002       0.60495284999999999        0.0000000000000000     
  0.25505132000000003       0.60593640999999998        0.0000000000000000     
  0.52159297999999998       0.40671636000000000        0.0000000000000000     
  0.40768852000000000       0.47699891000000000        0.0000000000000000     
   9.1467049999999994E-002   9.1876959999999994E-002   0.0000000000000000     
  0.90842484999999995       0.90819225000000003        0.0000000000000000     
  0.90820104999999995        9.1566729999999999E-002   0.0000000000000000     
   9.1807449999999999E-002  0.90843574000000005        0.0000000000000000     
  0.27098960000000000       0.20527094000000001        0.0000000000000000     
  0.73457293999999995       0.79835387000000002        0.0000000000000000     
  0.79817773000000003       0.25713470999999999        0.0000000000000000     
  0.20747797000000001       0.72863946000000002        0.0000000000000000     
  0.20175195000000001       0.27583914999999998        0.0000000000000000     
  0.79603889000000005       0.72159035000000005        0.0000000000000000     
  0.71761666000000002       0.19748431999999999        0.0000000000000000     
  0.28462607000000001       0.80251899999999998        0.0000000000000000     
  0.69134598999999997       0.49261972999999998        0.0000000000000000     
  0.44720578999999999       0.58582935999999997        0.0000000000000000     
  0.24242269999999999       0.37228174000000003        0.0000000000000000     
  0.38265623999999998       0.93072131999999996        0.0000000000000000     
  0.60971754000000000       0.91988369000000003        0.0000000000000000     
   7.9163609999999995E-002  0.60979116000000000        0.0000000000000000     
  0.92010649000000000       0.61081183999999999        0.0000000000000000     
  0.61954008999999999        7.1530830000000004E-002   0.0000000000000000     
  0.91882012999999996       0.38917363999999999        0.0000000000000000     
  0.39086346000000000        8.0652249999999995E-002   0.0000000000000000     
   7.9183480000000001E-002  0.38966213000000000        0.0000000000000000     
  0.59114111999999996       0.49294315000000000        0.0000000000000000     
  0.63337980999999999       0.64485914000000000        0.0000000000000000     
  0.50012352000000004       0.29676539000000002        0.0000000000000000     
  0.82552601000000003       0.92753492000000004        0.0000000000000000     
  0.92774772999999999       0.82498556999999995        0.0000000000000000     
   7.1970870000000006E-002  0.17510291000000000        0.0000000000000000     
  0.17422821999999999        7.2635640000000001E-002   0.0000000000000000     
  0.82510813000000005        7.2134840000000006E-002   0.0000000000000000     
  0.92754665000000003       0.17446275999999999        0.0000000000000000     
  0.17501022999999999       0.92789951999999998        0.0000000000000000     
   7.2464680000000004E-002  0.82554053000000005        0.0000000000000000     
  0.30731587999999999       0.50885354999999999        0.0000000000000000     
  0.59033407999999998       0.22171178999999999        0.0000000000000000     
  0.40109191999999999       0.78725542000000004        0.0000000000000000     
  0.35420917000000002       0.63754104000000000        0.0000000000000000     
  0.15983976999999999       0.56665573000000002        0.0000000000000000     
  0.84108459999999996       0.56757886999999996        0.0000000000000000     
  0.83902096000000004       0.43344338999999998        0.0000000000000000     
  0.43230028999999998       0.16004268999999999        0.0000000000000000     
  0.57536027999999995       0.83041363999999995        0.0000000000000000     
  0.15771898000000001       0.42747892999999998        0.0000000000000000     
  0.34021692999999997       0.34221559000000001        0.0000000000000000     
  0.56002271999999997       0.57501117999999996        0.0000000000000000     
  0.65344329000000001       0.78147597999999996        0.0000000000000000     
   0.0000000000000000        0.0000000000000000        0.0000000000000000     
   1.0000000000000000        0.0000000000000000        0.0000000000000000     
   1.0000000000000000        1.0000000000000000        0.0000000000000000     
   0.0000000000000000        1.0000000000000000        0.0000000000000000     
  0.11111111000000000        0.0000000000000000        0.0000000000000000     
  0.22222222000000000        0.0000000000000000        0.0000000000000000     
  0.33333332999999998        0.0000000000000000        0.0000000000000000     
  0.44444444000000000        0.0000000000000000        0.0000000000000000     
  0.55555555999999995        0.0000000000000000        0.0000000000000000     
  0.66666667000000002        0.0000000000000000        0.0000000000000000     
  0.77777777999999997        0.0000000000000000        0.0000000000000000     
  0.88888889000000004        0.0000000000000000        0.0000000000000000     
   1.0000000000000000       0.11111111000000000        0.0000000000000000     
   1.0000000000000000       0.22222222000000000        0.0000000000000000     
   1.0000000000000000       0.33333332999999998        0.0000000000000000     
   1.0000000000000000       0.44444444000000000        0.0000000000000000     
   1.0000000000000000       0.55555555999999995        0.0000000000000000     
   1.0000000000000000       0.66666667000000002        0.0000000000000000     
   1.0000000000000000       0.77777777999999997        0.0000000000000000     
   1.0000000000000000       0.88888889000000004        0.0000000000000000     
  0.88888889000000004        1.0000000000000000        0.0000000000000000     
  0.77777777999999997        1.0000000000000000        0.0000000000000000     
  0.66666667000000002        1.0000000000000000        0.0000000000000000     
  0.55555555999999995        1.0000000000000000        0.0000000000000000     
  0.44444444000000000        1.0000000000000000        0.0000000000000000     
  0.33333332999999998        1.0000000000000000        0.0000000000000000     
  0.22222222000000000        1.0000000000000000        0.0000000000000000     
  0.11111111000000000        1.0000000000000000        0.0000000000000000     
   0.0000000000000000       0.11111111000000000        0.0000000000000000     
   0.0000000000000000       0.22222222000000000        0.0000000000000000     
[...]
 CELL_DATA         354
 SCALARS E float
 LOOKUP_TABLE default
    0.67361979490054735287E+00
    0.60787102427107309044E+00
    0.62834841135921015720E+00
    0.58795247341557410614E+00
    0.67662163465434532750E+00
    0.62229767050668338690E+00
    0.69264332097205538741E+00
    0.63828248396159981137E+00
    0.67829283681299634701E+00
    0.65945352137930712821E+00
    0.63904747892202407034E+00
    0.65225251753540702815E+00
    0.62641688525336403082E+00
    0.63308381497794696813E+00
    0.64230746322488341260E+00
    0.63874861183333730974E+00
    0.65238535317912416112E+00
    0.65562608318981818734E+00
    0.71255033728275662952E+00
    0.70356019560637506061E+00
    0.65288239699488759271E+00
    0.67575322189010267326E+00
    0.67198412779388339011E+00
    0.64602634067487374470E+00
    0.66761656274698755187E+00
    0.66433046393064976165E+00
    0.67267703262516542750E+00
    0.69518399991544088667E+00
    0.61707792525141336171E+00
    0.62559439992334531233E+00
    0.66243090242492896902E+00
    0.63036986426188079680E+00
    0.67436733975905560623E+00
    0.67057967018218533894E+00
    0.64612895540533787919E+00
    0.65825797551004971986E+00
    0.63974375590835408367E+00
    0.64239886815464464220E+00
    0.65633636285150809275E+00
    0.65078188577607409826E+00
    0.65384563201792922360E+00
    0.65620615840334972635E+00
    0.65786072335248402254E+00
    0.65839459035017622313E+00
    0.66037141856563130737E+00
    0.65557689621299886085E+00
    0.64167909854314508777E+00
    0.64547224126475855055E+00
    0.63520586224036823531E+00
    0.62676528612868720458E+00
    0.60053396353447052736E+00
    0.60581317479304752638E+00
    0.67811087317294371779E+00
    0.68019983222530944200E+00
    0.67577715812642402682E+00
    0.67728873847484460935E+00
    0.65786178820671481482E+00
    0.66039675220944182854E+00
    0.67190455885957378612E+00
    0.67240885103300029879E+00
    0.67162739557821582448E+00
    0.66951492890458053076E+00
    0.65395905732774584074E+00
    0.66245038918885867929E+00
    0.64798440433383064363E+00
    0.63727200786404702981E+00
    0.59549279223454798515E+00
    0.61577370759624150409E+00
    0.59689511449819765421E+00
    0.63090299802857874312E+00
    0.65102361703659195058E+00
    0.60226627139167621117E+00
    0.65275128590712228061E+00
    0.64302221381692103996E+00
    0.66581314327524465657E+00
    0.65710653918242145632E+00
    0.65299835710797615729E+00
    0.64881481326925616315E+00
    0.73146397181591327197E+00
    0.71462867425328169269E+00
    0.61139817931673734464E+00
    0.68308976641873941915E+00
    0.73431250529616942657E+00
    0.63052287368396364720E+00
    0.61093329791707851051E+00
    0.58880599461980054343E+00
    0.41230623390456067057E+00
    0.62761409679438029396E+00
    0.59725495138369566472E+00
    0.62907479441629465811E+00
    0.53189376869787152735E+00
    0.68353677045803407086E+00
    0.66194745378996888707E+00
    0.63722870230690342730E+00
    0.67637427759854029663E+00
    0.62352372291979085706E+00
    0.76612320942641554122E+00
    0.66869338883814544161E+00
    0.64658486690400673869E+00
    0.65790979852355135904E+00
    0.65415201449144022572E+00
    0.65270695927203181697E+00
    0.66713313505611493426E+00
    0.60776026737567878655E+00
    0.60246319084707333769E+00
    0.61376820508953144895E+00
    0.62588223906609552483E+00
    0.58774170496248268059E+00
    0.74845070446279626797E+00
    0.67255156870348187237E+00
    0.68900002563373219377E+00
    0.66894690286030022985E+00
    0.63311863721713912412E+00
    0.62397233100173987719E+00
    0.66614493698478660644E+00
    0.65193753349880534387E+00
    0.74922039185086419799E+00
    0.70966018428636579163E+00
    0.72512213433232242110E+00
    0.61096167776937349014E+00
    0.76884936923669544573E+00
    0.67313550635105923181E+00
    0.67174982670019600661E+00
    0.67010462369479162348E+00
    0.67891137391680189683E+00
    0.67503013287347468641E+00
    0.66351643114769331966E+00
    0.67160634591826129380E+00
    0.64163770774623640758E+00
    0.73024147244150938718E+00
    0.62925177972646917368E+00
    0.72442076263404220349E+00
    0.74606761312735803138E+00
    0.57683816070745086435E+00
    0.68131665601718371938E+00
    0.65476302827049359667E+00
    0.64288971477014644762E+00
    0.66395270809070539020E+00
    0.64730870540582707839E+00
    0.62627500273539726816E+00
    0.65018685626202532557E+00
    0.64871469373489543120E+00
    0.66052844466585725058E+00
    0.65573915352357381447E+00
    0.64108863378218494677E+00
    0.67537264454529710722E+00
    0.67287552198646471968E+00
    0.64286898157504612783E+00
    0.64598072390440997026E+00
    0.62471955137991086460E+00
    0.58150958643089223354E+00
    0.62898744468537071128E+00
    0.60821440963745954100E+00
    0.62424376974728956746E+00
    0.60965963720376481483E+00
    0.65465618499947297870E+00
    0.65003623217601269602E+00
    0.64218347277663967443E+00
    0.65319661680782981072E+00
    0.66751342304579752707E+00
    0.71070223475573790495E+00
    0.65016773640454939009E+00
    0.65246519105320699428E+00
    0.64655904960521004554E+00
    0.72812117501614725956E+00
    0.68732303631083102591E+00
    0.69043813986667601501E+00
    0.69280172749100821239E+00
    0.67920645114788513741E+00
    0.67617823783760133693E+00
    0.64971010093522796325E+00
    0.63421948500917268987E+00
    0.65848223901235880540E+00
    0.64628668666518063191E+00
    0.62515049777040243573E+00
    0.67889324071404677508E+00
    0.74000406980378208299E+00
    0.72365380979879956325E+00
    0.65326038765632044036E+00
    0.72132573563011626039E+00
    0.62375141124441757512E+00
    0.64550199060634849690E+00
    0.63693514631679515325E+00
    0.64899729512267245735E+00
    0.66351215522622863929E+00
    0.64115283359912478289E+00
    0.72478583769572479945E+00
    0.67358720367579305588E+00
    0.70900856856853600174E+00
    0.72898746740124054089E+00
    0.57479296401187696119E+00
    0.60476632676496655527E+00
    0.56464887628350368676E+00
    0.60000631453675601357E+00
    0.56561536072181040069E+00
    0.68907389651742190217E+00
    0.62857662760799470902E+00
    0.67534685219894607933E+00
    0.69401839405043630471E+00
    0.64027784712421986768E+00
    0.66445741194276486397E+00
    0.67741729608459833045E+00
    0.67876962548972386013E+00
    0.67060452593336705718E+00
    0.66991793034853697186E+00
    0.50380858149303331395E+00
    0.63243614028764338908E+00
    0.60159621535509488766E+00
    0.60090288236788358400E+00
    0.62745115145424557035E+00
    0.72448353214214478157E+00
    0.72471149521076316802E+00
    0.66593887138289631356E+00
    0.66155116449273665413E+00
    0.65065301292790078680E+00
    0.64369244153796434382E+00
    0.65438511447936464904E+00
    0.64552855400181874401E+00
    0.64709720637678935784E+00
    0.44479289349943074150E+00
    0.34618251071359068538E+00
    0.33316506714972393688E+00
    0.71188395116003599927E+00
    0.57897212158725019915E+00
    0.77215505335786760455E+00
    0.66703852108117023256E+00
    0.67441144097833172211E+00
    0.67838238910702841622E+00
    0.68067508395705378366E+00
    0.68432186644329995318E+00
    0.64779042060606017994E+00
    0.60924870064226099853E+00
    0.69408326296584488269E+00
    0.70974231252916109014E+00
    0.69003496075814474420E+00
    0.71204381141132777611E+00
    0.65756703329109211786E+00
    0.61316769219807287783E+00
    0.63982799699328130050E+00
    0.61121738661504776413E+00
    0.60158270468318530977E+00
    0.73689594326646867817E+00
    0.60910405509009801772E+00
    0.65442614118081054997E+00
    0.61345597691193876067E+00
    0.65214471628077474996E+00
    0.68398142127035654880E+00
    0.67689105302350616178E+00
    0.66290540835143896281E+00
    0.74878805307255369428E+00
    0.62216509569098621402E+00
    0.59540175468206291143E+00
    0.68398426333699968716E+00
    0.65611797188387122048E+00
    0.70963812630971945250E+00
    0.65698698769018459842E+00
    0.65113139608991388307E+00
    0.65784810573053709160E+00
    0.64483545318546875436E+00
    0.66346874916285458745E+00
    0.67402070284181625492E+00
    0.61194710938696583735E+00
    0.63525078882505181532E+00
    0.65100459382878272940E+00
    0.67931671508513458146E+00
    0.67896595001319404172E+00
    0.65010952457898540935E+00
    0.67317659685666897396E+00
    0.66343408897101374677E+00
    0.64065443941782562742E+00
    0.65508964025861637914E+00
    0.60088615348186147358E+00
    0.59887248978398532895E+00
    0.61582366105887298424E+00
    0.71972469757474044627E+00
    0.66049064634892129533E+00
    0.65923091095729535738E+00
    0.67773271155971470669E+00
    0.62674716557507792469E+00
    0.72198133096386818419E+00
    0.77218550167199817569E+00
    0.63869648286873659249E+00
    0.61088682403306082680E+00
    0.61622743434576521260E+00
    0.54023111934931211664E+00
    0.65100277785076476889E+00
    0.64982144004821029704E+00
    0.66509919453755195207E+00
    0.64171703504263666318E+00
    0.65768872986203086306E+00
    0.66692483439663496902E+00
    0.69534274333147438885E+00
    0.70335622773908434979E+00
    0.61797495294364701568E+00
    0.62583716835005187562E+00
    0.68820382500348786792E+00
    0.64514296729109510409E+00
    0.64365508937727244909E+00
    0.60103813711298825773E+00
    0.68474048250772745483E+00
    0.67855263669452758890E+00
    0.63040404716620379588E+00
    0.67065000367818550231E+00
    0.60832157568217037902E+00
    0.70809282823298480558E+00
    0.66118235690313009734E+00
    0.73102061258373818298E+00
    0.65759913024198202169E+00
    0.68761002859408093535E+00
    0.68973933806153997494E+00
    0.74645694901834969137E+00
    0.65764624470497179409E+00
    0.63194684349854801653E+00
    0.65849608466374143223E+00
    0.64558183466545848717E+00
    0.65676108342855632483E+00
    0.48002457637183865158E+00
    0.65203018808609214396E+00
    0.67718111124537005985E+00
    0.66379504804162148268E+00
    0.68733194711010825451E+00
    0.62068143850343437951E+00
    0.62216120596058321901E+00
    0.61569652558287091271E+00
    0.57891622684779753261E+00
    0.56943081170350207110E+00
    0.62964983212896663556E+00
    0.68522331363546273852E+00
    0.64776046296193534602E+00
    0.63364909206293318356E+00
    0.63093931270336667261E+00
    0.64206362124597471386E+00
    0.67734014322380597939E+00
    0.66128904073249927809E+00
    0.68449376017212881784E+00
    0.67778170811452731481E+00
    0.64541313790862475663E+00
    0.63595585469090765152E+00
    0.66880123733821539300E+00
    0.65590338861816066540E+00
    0.63191812881233833110E+00
    0.64227263377767285224E+00
    0.64721230852516931087E+00
    0.64558622059729331433E+00
    0.63883723368669020903E+00
    0.62547776756277662091E+00
    0.60616505873759485290E+00
    0.66989460110139686932E+00
    0.66984504036511327563E+00
    0.67015878619918423098E+00
    0.66657245696167188864E+00
    0.65892264619631912836E+00
    0.64077969081428254317E+00
    0.61565415930971845171E+00
