# vtk DataFile Version 3.0
LAPLACIEN  2D
ASCII
DATASET UNSTRUCTURED_GRID
 POINTS         391  float
  0.50371505999999999       0.50367786999999997        0.0000000000000000     
  0.29013556000000001       0.29014535000000002        0.0000000000000000     
  0.70165584999999997       0.71206597999999999        0.0000000000000000     
  0.70304188999999995       0.30176619999999998        0.0000000000000000     
  0.30920671999999999       0.71149227999999998        0.0000000000000000     
  0.79044983999999996       0.49884783999999999        0.0000000000000000     
  0.49102621000000002       0.20968644000000000        0.0000000000000000     
  0.49912957000000002       0.77208717000000004        0.0000000000000000     
  0.21724072999999999       0.48989389000000000        0.0000000000000000     
  0.83255933999999998       0.83046598000000005        0.0000000000000000     
  0.16646774000000000       0.17015694000000001        0.0000000000000000     
  0.83054514999999995       0.16736480000000001        0.0000000000000000     
  0.16953130999999999       0.83265739000000005        0.0000000000000000     
  0.42166445000000002       0.36345201999999999        0.0000000000000000     
  0.64462200999999997       0.56347807999999999        0.0000000000000000     
  0.35324633999999999       0.56311191000000005        0.0000000000000000     
  0.65456411000000003       0.84856860999999995        0.0000000000000000     
  0.35141477999999998       0.15563974000000000        0.0000000000000000     
  0.15290967000000000       0.35206625000000003        0.0000000000000000     
  0.82942241000000005       0.34936866000000000        0.0000000000000000     
  0.84390527000000004       0.64441694999999999        0.0000000000000000     
  0.63699174999999997       0.14284276000000001        0.0000000000000000     
  0.15620682999999999       0.64648446999999998        0.0000000000000000     
  0.36426062999999997       0.85756310999999996        0.0000000000000000     
  0.63489340999999999       0.40519052000000000        0.0000000000000000     
  0.52518872999999999       0.65957078000000002        0.0000000000000000     
  0.32158959999999998       0.42298103999999997        0.0000000000000000     
  0.58861710000000000       0.31711036999999997        0.0000000000000000     
  0.42078418000000001       0.69497151999999995        0.0000000000000000     
  0.48608786999999998       0.89334152000000000        0.0000000000000000     
   9.7084320000000002E-002  0.50000000000000000        0.0000000000000000     
  0.90291568000000000       0.50000000000000000        0.0000000000000000     
  0.51392453000000005       0.10668648999999999        0.0000000000000000     
  0.59792566999999996       0.73122754000000001        0.0000000000000000     
  0.74510058999999995       0.41124730999999998        0.0000000000000000     
  0.73212551999999997       0.90191560000000004        0.0000000000000000     
   9.7784830000000003E-002  0.26957329000000002        0.0000000000000000     
  0.26711221000000002        9.8671499999999995E-002   0.0000000000000000     
  0.90191560000000004       0.26787448000000003        0.0000000000000000     
  0.90118569000000004       0.73039821000000005        0.0000000000000000     
  0.73122947000000005        9.8017859999999998E-002   0.0000000000000000     
   9.8084400000000002E-002  0.73212551999999997        0.0000000000000000     
  0.26957329000000002       0.90221516999999996        0.0000000000000000     
  0.39283522999999998       0.25360379000000000        0.0000000000000000     
  0.74480864000000002       0.60495284999999999        0.0000000000000000     
  0.25505132000000003       0.60593640999999998        0.0000000000000000     
  0.52159297999999998       0.40671636000000000        0.0000000000000000     
  0.40768852000000000       0.47699891000000000        0.0000000000000000     
   9.1467049999999994E-002   9.1876959999999994E-002   0.0000000000000000     
  0.90842484999999995       0.90819225000000003        0.0000000000000000     
  0.90820104999999995        9.1566729999999999E-002   0.0000000000000000     
   9.1807449999999999E-002  0.90843574000000005        0.0000000000000000     
  0.27098960000000000       0.20527094000000001        0.0000000000000000     
  0.73457293999999995       0.79835387000000002        0.0000000000000000     
  0.79817773000000003       0.25713470999999999        0.0000000000000000     
  0.20747797000000001       0.72863946000000002        0.0000000000000000     
  0.20175195000000001       0.27583914999999998        0.0000000000000000     
  0.79603889000000005       0.72159035000000005        0.0000000000000000     
  0.71761666000000002       0.19748431999999999        0.0000000000000000     
  0.28462607000000001       0.80251899999999998        0.0000000000000000     
  0.69134598999999997       0.49261972999999998        0.0000000000000000     
  0.44720578999999999       0.58582935999999997        0.0000000000000000     
  0.24242269999999999       0.37228174000000003        0.0000000000000000     
  0.38265623999999998       0.93072131999999996        0.0000000000000000     
  0.60971754000000000       0.91988369000000003        0.0000000000000000     
   7.9163609999999995E-002  0.60979116000000000        0.0000000000000000     
  0.92010649000000000       0.61081183999999999        0.0000000000000000     
  0.61954008999999999        7.1530830000000004E-002   0.0000000000000000     
  0.91882012999999996       0.38917363999999999        0.0000000000000000     
  0.39086346000000000        8.0652249999999995E-002   0.0000000000000000     
   7.9183480000000001E-002  0.38966213000000000        0.0000000000000000     
  0.59114111999999996       0.49294315000000000        0.0000000000000000     
  0.63337980999999999       0.64485914000000000        0.0000000000000000     
  0.50012352000000004       0.29676539000000002        0.0000000000000000     
  0.82552601000000003       0.92753492000000004        0.0000000000000000     
  0.92774772999999999       0.82498556999999995        0.0000000000000000     
   7.1970870000000006E-002  0.17510291000000000        0.0000000000000000     
  0.17422821999999999        7.2635640000000001E-002   0.0000000000000000     
  0.82510813000000005        7.2134840000000006E-002   0.0000000000000000     
  0.92754665000000003       0.17446275999999999        0.0000000000000000     
  0.17501022999999999       0.92789951999999998        0.0000000000000000     
   7.2464680000000004E-002  0.82554053000000005        0.0000000000000000     
  0.30731587999999999       0.50885354999999999        0.0000000000000000     
  0.59033407999999998       0.22171178999999999        0.0000000000000000     
  0.40109191999999999       0.78725542000000004        0.0000000000000000     
  0.35420917000000002       0.63754104000000000        0.0000000000000000     
  0.15983976999999999       0.56665573000000002        0.0000000000000000     
  0.84108459999999996       0.56757886999999996        0.0000000000000000     
  0.83902096000000004       0.43344338999999998        0.0000000000000000     
  0.43230028999999998       0.16004268999999999        0.0000000000000000     
  0.57536027999999995       0.83041363999999995        0.0000000000000000     
  0.15771898000000001       0.42747892999999998        0.0000000000000000     
  0.34021692999999997       0.34221559000000001        0.0000000000000000     
  0.56002271999999997       0.57501117999999996        0.0000000000000000     
  0.65344329000000001       0.78147597999999996        0.0000000000000000     
   0.0000000000000000        0.0000000000000000        0.0000000000000000     
   1.0000000000000000        0.0000000000000000        0.0000000000000000     
   1.0000000000000000        1.0000000000000000        0.0000000000000000     
   0.0000000000000000        1.0000000000000000        0.0000000000000000     
  0.11111111000000000        0.0000000000000000        0.0000000000000000     
  0.22222222000000000        0.0000000000000000        0.0000000000000000     
  0.33333332999999998        0.0000000000000000        0.0000000000000000     
  0.44444444000000000        0.0000000000000000        0.0000000000000000     
  0.55555555999999995        0.0000000000000000        0.0000000000000000     
  0.66666667000000002        0.0000000000000000        0.0000000000000000     
  0.77777777999999997        0.0000000000000000        0.0000000000000000     
  0.88888889000000004        0.0000000000000000        0.0000000000000000     
   1.0000000000000000       0.11111111000000000        0.0000000000000000     
   1.0000000000000000       0.22222222000000000        0.0000000000000000     
   1.0000000000000000       0.33333332999999998        0.0000000000000000     
   1.0000000000000000       0.44444444000000000        0.0000000000000000     
   1.0000000000000000       0.55555555999999995        0.0000000000000000     
   1.0000000000000000       0.66666667000000002        0.0000000000000000     
   1.0000000000000000       0.77777777999999997        0.0000000000000000     
   1.0000000000000000       0.88888889000000004        0.0000000000000000     
  0.88888889000000004        1.0000000000000000        0.0000000000000000     
  0.77777777999999997        1.0000000000000000        0.0000000000000000     
  0.66666667000000002        1.0000000000000000        0.0000000000000000     
  0.55555555999999995        1.0000000000000000        0.0000000000000000     
  0.44444444000000000        1.0000000000000000        0.0000000000000000     
  0.33333332999999998        1.0000000000000000        0.0000000000000000     
  0.22222222000000000        1.0000000000000000        0.0000000000000000     
  0.11111111000000000        1.0000000000000000        0.0000000000000000     
   0.0000000000000000       0.11111111000000000        0.0000000000000000     
   0.0000000000000000       0.22222222000000000        0.0000000000000000     
[...]
 CELL_DATA         354
 SCALARS E float
 LOOKUP_TABLE default
    0.69256359595565153420E+00
    0.68172679899163357575E+00
    0.63741258698961400508E+00
    0.58328150997953986945E+00
    0.73670506868393537125E+00
    0.72366872312938856915E+00
    0.67467015987755429851E+00
    0.70314528951349530850E+00
    0.67716297380918299975E+00
    0.66143430339334929879E+00
    0.59390887178872986407E+00
    0.62158088906994590772E+00
    0.58963360727200242462E+00
    0.58172994401764710481E+00
    0.61142865014769265386E+00
    0.59937974628268742006E+00
    0.61547534620883359580E+00
    0.65596648766948706388E+00
    0.71542918436425906314E+00
    0.68815586432304332032E+00
    0.69454226148429487608E+00
    0.68818250090710442191E+00
    0.65402531001370822761E+00
    0.67056683264080230167E+00
    0.64327011386324162157E+00
    0.65488964944803651491E+00
    0.68380011508900206962E+00
    0.67446421107034559839E+00
    0.68193542958567321399E+00
    0.69679917355878928653E+00
    0.71074827674334062344E+00
    0.71104292422459491885E+00
    0.69375576821594209243E+00
    0.69501928566664405995E+00
    0.68733449506082244795E+00
    0.69407514491845734295E+00
    0.65659193401714266436E+00
    0.66478950546904036489E+00
    0.66752956416471431744E+00
    0.66520699723977527729E+00
    0.67051330968437361513E+00
    0.67604026736636690931E+00
    0.67003905719790080031E+00
    0.67537961656635880914E+00
    0.66662701010420710723E+00
    0.66324013205168319551E+00
    0.65521994329180044403E+00
    0.66020591316608601140E+00
    0.64290767790612657340E+00
    0.63436258482290264205E+00
    0.61557976983383211333E+00
    0.62757519346128665116E+00
    0.70084400464040075285E+00
    0.70556943845794950487E+00
    0.69246081713211260489E+00
    0.69747559633513234179E+00
    0.68953918266989644437E+00
    0.69534556701952543456E+00
    0.70018951289544217875E+00
    0.70121076280395866487E+00
    0.69232047939994045826E+00
    0.69305856718994296450E+00
    0.67799665839903555664E+00
    0.69068515388870754812E+00
    0.65943117477773582902E+00
    0.65083551203018519260E+00
    0.62800382025661938279E+00
    0.64125141420796127889E+00
    0.63043710691047727401E+00
    0.67463708928721388691E+00
    0.72210765319427072662E+00
    0.64348890597627828036E+00
    0.70727036560660017095E+00
    0.64087874696693092336E+00
    0.68789641336009044181E+00
    0.73434947825070540084E+00
    0.73870360589620109870E+00
    0.69306679311541752320E+00
    0.72232805582238490683E+00
    0.71432941149943574022E+00
    0.74301621654644234294E+00
    0.72973553748873509761E+00
    0.73674857593246434462E+00
    0.71561358426261512111E+00
    0.66349318724322547958E+00
    0.73961571430299222207E+00
    0.83415716149120788803E+00
    0.68151133657566043134E+00
    0.66486077196137549628E+00
    0.69841778305112733882E+00
    0.76966606172028351196E+00
    0.77025040802206090618E+00
    0.76331362951999726096E+00
    0.75353429292723472788E+00
    0.74774889915136644181E+00
    0.75534025793810721794E+00
    0.77291021048661434634E+00
    0.73000618373747516721E+00
    0.66513423554300254992E+00
    0.70879380336400643614E+00
    0.70307754724640636468E+00
    0.69260435895721328414E+00
    0.70717674886205583729E+00
    0.68881426227427999809E+00
    0.69367000912995502304E+00
    0.72487504096130428444E+00
    0.71629911703464188566E+00
    0.65668259770989978463E+00
    0.74285304441689703481E+00
    0.73753791079206387771E+00
    0.76730043524402691268E+00
    0.73843808875754335386E+00
    0.75663216336278327212E+00
    0.74465702686187784654E+00
    0.74716348981482794134E+00
    0.74886860567671864608E+00
    0.74959521379068549951E+00
    0.72447342002643089209E+00
    0.75260398655854598982E+00
    0.72224361336794495880E+00
    0.72713024774176471254E+00
    0.73361084590653635740E+00
    0.73806933540422692275E+00
    0.71401114533982656951E+00
    0.76041696620825538488E+00
    0.75745307577770559782E+00
    0.70342314020544050024E+00
    0.71654282073531816444E+00
    0.73450853518305625478E+00
    0.72901416514343775344E+00
    0.73138691002139188946E+00
    0.75246122649323621268E+00
    0.75394480083774162438E+00
    0.71894529535140838661E+00
    0.71824215090397203198E+00
    0.70768795904452064249E+00
    0.68219437355915801824E+00
    0.69907261163613054755E+00
    0.71249944692402222834E+00
    0.69862834667312978532E+00
    0.67151979830077768163E+00
    0.67848812335272989937E+00
    0.71112896103244505053E+00
    0.70285555157836410167E+00
    0.67705548970251783203E+00
    0.74355040491254231760E+00
    0.73848535910231216661E+00
    0.67423155210499374768E+00
    0.67939793596697650724E+00
    0.66459962683775430925E+00
    0.65685519984055562581E+00
    0.70803017822386893343E+00
    0.67812917852406451313E+00
    0.70956870312238884413E+00
    0.64465454572860536597E+00
    0.74883337508601521826E+00
    0.68793718857370012021E+00
    0.65432638382045182901E+00
    0.73992441496880201335E+00
    0.70606214139448508771E+00
    0.77231333616462127800E+00
    0.66083632777490330934E+00
    0.69454091560400965655E+00
    0.71872612605650965101E+00
    0.73771988470363347723E+00
    0.76585928089795185514E+00
    0.76123532214694777931E+00
    0.76910376291413384831E+00
    0.74368599920811029325E+00
    0.74857148377726967503E+00
    0.75353285888675869408E+00
    0.67428973164048677802E+00
    0.71164915244290094520E+00
    0.73893795448552213045E+00
    0.67757132788845564342E+00
    0.76929048878169514758E+00
    0.73384211550059874618E+00
    0.71146758471367055332E+00
    0.77394169539133861324E+00
    0.73626175871303756182E+00
    0.64828695220294707546E+00
    0.72528360565191452025E+00
    0.67843029625081519018E+00
    0.73253231790364314868E+00
    0.67666605245797217805E+00
    0.77492807281533093722E+00
    0.71467836941082274471E+00
    0.74062093525689709494E+00
    0.77090322348143125453E+00
    0.72498436343299066387E+00
    0.65951667281649173358E+00
    0.69445640162437061171E+00
    0.64104847141735776805E+00
    0.65519156070692807781E+00
    0.67468285006822836802E+00
    0.76001285165093990237E+00
    0.72764285622686086796E+00
    0.73605956795875182586E+00
    0.76584614353550284349E+00
    0.73874770236153386449E+00
    0.71786951442705404514E+00
    0.74015893430736756642E+00
    0.72557948679872819042E+00
    0.71886474596656235736E+00
    0.73134465537721771167E+00
    0.79947440215077003600E+00
    0.66416299181428628540E+00
    0.71124002846814504686E+00
    0.66191788220056324565E+00
    0.66956988974976372475E+00
    0.73829632456984661815E+00
    0.72849789742670956194E+00
    0.71827583071380951552E+00
    0.73163529093370394119E+00
    0.72314652239027732428E+00
    0.67040435525952868367E+00
    0.74223078519597707192E+00
    0.70677582566820484899E+00
    0.69975394688233283347E+00
    0.80874017034833489692E+00
    0.84003898467605531142E+00
    0.84823055699172511535E+00
    0.71695125347060106868E+00
    0.74640459483261956120E+00
    0.73788658048604505169E+00
    0.69730896485804583218E+00
    0.74404335097233742502E+00
    0.76396110753995327691E+00
    0.76102367282622473965E+00
    0.75062675003447099087E+00
    0.76618999995974668149E+00
    0.74762310321773406407E+00
    0.77481808486997438834E+00
    0.74622164659756884397E+00
    0.75048866714150730406E+00
    0.73271563969652997450E+00
    0.75913283497431627289E+00
    0.62465131274197949196E+00
    0.69986191217340620874E+00
    0.73150154136623901646E+00
    0.69577849053955365122E+00
    0.73476686165855376043E+00
    0.74399843386065489526E+00
    0.72620903778959511321E+00
    0.66155471228001883066E+00
    0.64016728660646693427E+00
    0.75751239346498044913E+00
    0.75224858349458301188E+00
    0.70401265081270314461E+00
    0.75379044288515850702E+00
    0.76378479607537785867E+00
    0.72548303765137944765E+00
    0.74371938349621979913E+00
    0.75849654485165396434E+00
    0.70510612988174981020E+00
    0.72712295809452465178E+00
    0.72426298803341659927E+00
    0.69135519078441209917E+00
    0.76267732888883754683E+00
    0.77572889501004749224E+00
    0.71178574071893097042E+00
    0.69462102115189849894E+00
    0.71211732864626631212E+00
    0.65894739563246673697E+00
    0.74566932048202272387E+00
    0.75325086770825855353E+00
    0.68143537140076493319E+00
    0.73377666099832206115E+00
    0.72618792134901444246E+00
    0.67261028049883897495E+00
    0.66165988432445854706E+00
    0.72060411020092529633E+00
    0.66173783739660341219E+00
    0.63405794943345283876E+00
    0.71493190492347324927E+00
    0.73301243078589362057E+00
    0.73857825926628095647E+00
    0.69964076108029038537E+00
    0.73605186738837968807E+00
    0.77871980818223429655E+00
    0.76910343987865470439E+00
    0.72593942371421249504E+00
    0.67812397074210994941E+00
    0.64335315350666144596E+00
    0.75891155989180736352E+00
    0.69115223708956352588E+00
    0.66475463673577139811E+00
    0.74064044375115678509E+00
    0.74181100589218973429E+00
    0.70485725247987252029E+00
    0.71660700232737295501E+00
    0.72036658926669006053E+00
    0.72167231090389583059E+00
    0.66590331106159905694E+00
    0.67074042169989067652E+00
    0.74185856996602228541E+00
    0.75284976418221960515E+00
    0.75471161066606939904E+00
    0.67746327176416309968E+00
    0.75142850469663735602E+00
    0.72790231639743452341E+00
    0.67723034748146404560E+00
    0.72799347560815197422E+00
    0.65543350448508941319E+00
    0.70441422047487356473E+00
    0.72291399368753594956E+00
    0.69513793560394976367E+00
    0.72572344370801755709E+00
    0.76068574974209623996E+00
    0.75700317937996208784E+00
    0.75059703878686101497E+00
    0.73987188470303699717E+00
    0.71353908471179061657E+00
    0.76960524521367479345E+00
    0.67616917309754398513E+00
    0.73630467312945646619E+00
    0.77430538293200323885E+00
    0.74676672202400151690E+00
    0.71294468885469419739E+00
    0.67021909198351137249E+00
    0.70065952594535207965E+00
    0.67453390875179652930E+00
    0.64653564505342386859E+00
    0.61138968359490264426E+00
    0.56484806667684972492E+00
    0.57831852058941601857E+00
    0.70878828715556374540E+00
    0.65758983912807011940E+00
    0.61355146437203145204E+00
    0.57356092433461736135E+00
    0.55670538801814528629E+00
    0.58634537608935999309E+00
    0.66070894585024664281E+00
    0.65795360904312483186E+00
    0.63110438198616136685E+00
    0.63850538592469807675E+00
    0.66071525200690817137E+00
    0.67968043204309269711E+00
    0.68344215659150509001E+00
    0.68156516126924993060E+00
    0.63297731755000663512E+00
    0.63571876857286568896E+00
    0.64020487791297076008E+00
    0.63688061112094573879E+00
    0.63184310351570316389E+00
    0.61658786311192748109E+00
    0.60093891084273276526E+00
    0.67531501628883339183E+00
    0.66665463818846493194E+00
    0.66774127935524729693E+00
    0.66853738433447418288E+00
    0.66232878746830281536E+00
    0.64203108403810704718E+00
    0.62279454672789424929E+00
