# vtk DataFile Version 3.0
LAPLACIEN  2D
ASCII
DATASET UNSTRUCTURED_GRID
 POINTS         391  float
  0.50371505999999999       0.50367786999999997        0.0000000000000000     
  0.29013556000000001       0.29014535000000002        0.0000000000000000     
  0.70165584999999997       0.71206597999999999        0.0000000000000000     
  0.70304188999999995       0.30176619999999998        0.0000000000000000     
  0.30920671999999999       0.71149227999999998        0.0000000000000000     
  0.79044983999999996       0.49884783999999999        0.0000000000000000     
  0.49102621000000002       0.20968644000000000        0.0000000000000000     
  0.49912957000000002       0.77208717000000004        0.0000000000000000     
  0.21724072999999999       0.48989389000000000        0.0000000000000000     
  0.83255933999999998       0.83046598000000005        0.0000000000000000     
  0.16646774000000000       0.17015694000000001        0.0000000000000000     
  0.83054514999999995       0.16736480000000001        0.0000000000000000     
  0.16953130999999999       0.83265739000000005        0.0000000000000000     
  0.42166445000000002       0.36345201999999999        0.0000000000000000     
  0.64462200999999997       0.56347807999999999        0.0000000000000000     
  0.35324633999999999       0.56311191000000005        0.0000000000000000     
  0.65456411000000003       0.84856860999999995        0.0000000000000000     
  0.35141477999999998       0.15563974000000000        0.0000000000000000     
  0.15290967000000000       0.35206625000000003        0.0000000000000000     
  0.82942241000000005       0.34936866000000000        0.0000000000000000     
  0.84390527000000004       0.64441694999999999        0.0000000000000000     
  0.63699174999999997       0.14284276000000001        0.0000000000000000     
  0.15620682999999999       0.64648446999999998        0.0000000000000000     
  0.36426062999999997       0.85756310999999996        0.0000000000000000     
  0.63489340999999999       0.40519052000000000        0.0000000000000000     
  0.52518872999999999       0.65957078000000002        0.0000000000000000     
  0.32158959999999998       0.42298103999999997        0.0000000000000000     
  0.58861710000000000       0.31711036999999997        0.0000000000000000     
  0.42078418000000001       0.69497151999999995        0.0000000000000000     
  0.48608786999999998       0.89334152000000000        0.0000000000000000     
   9.7084320000000002E-002  0.50000000000000000        0.0000000000000000     
  0.90291568000000000       0.50000000000000000        0.0000000000000000     
  0.51392453000000005       0.10668648999999999        0.0000000000000000     
  0.59792566999999996       0.73122754000000001        0.0000000000000000     
  0.74510058999999995       0.41124730999999998        0.0000000000000000     
  0.73212551999999997       0.90191560000000004        0.0000000000000000     
   9.7784830000000003E-002  0.26957329000000002        0.0000000000000000     
  0.26711221000000002        9.8671499999999995E-002   0.0000000000000000     
  0.90191560000000004       0.26787448000000003        0.0000000000000000     
  0.90118569000000004       0.73039821000000005        0.0000000000000000     
  0.73122947000000005        9.8017859999999998E-002   0.0000000000000000     
   9.8084400000000002E-002  0.73212551999999997        0.0000000000000000     
  0.26957329000000002       0.90221516999999996        0.0000000000000000     
  0.39283522999999998       0.25360379000000000        0.0000000000000000     
  0.74480864000000002       0.60495284999999999        0.0000000000000000     
  0.25505132000000003       0.60593640999999998        0.0000000000000000     
  0.52159297999999998       0.40671636000000000        0.0000000000000000     
  0.40768852000000000       0.47699891000000000        0.0000000000000000     
   9.1467049999999994E-002   9.1876959999999994E-002   0.0000000000000000     
  0.90842484999999995       0.90819225000000003        0.0000000000000000     
  0.90820104999999995        9.1566729999999999E-002   0.0000000000000000     
   9.1807449999999999E-002  0.90843574000000005        0.0000000000000000     
  0.27098960000000000       0.20527094000000001        0.0000000000000000     
  0.73457293999999995       0.79835387000000002        0.0000000000000000     
  0.79817773000000003       0.25713470999999999        0.0000000000000000     
  0.20747797000000001       0.72863946000000002        0.0000000000000000     
  0.20175195000000001       0.27583914999999998        0.0000000000000000     
  0.79603889000000005       0.72159035000000005        0.0000000000000000     
  0.71761666000000002       0.19748431999999999        0.0000000000000000     
  0.28462607000000001       0.80251899999999998        0.0000000000000000     
  0.69134598999999997       0.49261972999999998        0.0000000000000000     
  0.44720578999999999       0.58582935999999997        0.0000000000000000     
  0.24242269999999999       0.37228174000000003        0.0000000000000000     
  0.38265623999999998       0.93072131999999996        0.0000000000000000     
  0.60971754000000000       0.91988369000000003        0.0000000000000000     
   7.9163609999999995E-002  0.60979116000000000        0.0000000000000000     
  0.92010649000000000       0.61081183999999999        0.0000000000000000     
  0.61954008999999999        7.1530830000000004E-002   0.0000000000000000     
  0.91882012999999996       0.38917363999999999        0.0000000000000000     
  0.39086346000000000        8.0652249999999995E-002   0.0000000000000000     
   7.9183480000000001E-002  0.38966213000000000        0.0000000000000000     
  0.59114111999999996       0.49294315000000000        0.0000000000000000     
  0.63337980999999999       0.64485914000000000        0.0000000000000000     
  0.50012352000000004       0.29676539000000002        0.0000000000000000     
  0.82552601000000003       0.92753492000000004        0.0000000000000000     
  0.92774772999999999       0.82498556999999995        0.0000000000000000     
   7.1970870000000006E-002  0.17510291000000000        0.0000000000000000     
  0.17422821999999999        7.2635640000000001E-002   0.0000000000000000     
  0.82510813000000005        7.2134840000000006E-002   0.0000000000000000     
  0.92754665000000003       0.17446275999999999        0.0000000000000000     
  0.17501022999999999       0.92789951999999998        0.0000000000000000     
   7.2464680000000004E-002  0.82554053000000005        0.0000000000000000     
  0.30731587999999999       0.50885354999999999        0.0000000000000000     
  0.59033407999999998       0.22171178999999999        0.0000000000000000     
  0.40109191999999999       0.78725542000000004        0.0000000000000000     
  0.35420917000000002       0.63754104000000000        0.0000000000000000     
  0.15983976999999999       0.56665573000000002        0.0000000000000000     
  0.84108459999999996       0.56757886999999996        0.0000000000000000     
  0.83902096000000004       0.43344338999999998        0.0000000000000000     
  0.43230028999999998       0.16004268999999999        0.0000000000000000     
  0.57536027999999995       0.83041363999999995        0.0000000000000000     
  0.15771898000000001       0.42747892999999998        0.0000000000000000     
  0.34021692999999997       0.34221559000000001        0.0000000000000000     
  0.56002271999999997       0.57501117999999996        0.0000000000000000     
  0.65344329000000001       0.78147597999999996        0.0000000000000000     
   0.0000000000000000        0.0000000000000000        0.0000000000000000     
   1.0000000000000000        0.0000000000000000        0.0000000000000000     
   1.0000000000000000        1.0000000000000000        0.0000000000000000     
   0.0000000000000000        1.0000000000000000        0.0000000000000000     
  0.11111111000000000        0.0000000000000000        0.0000000000000000     
  0.22222222000000000        0.0000000000000000        0.0000000000000000     
  0.33333332999999998        0.0000000000000000        0.0000000000000000     
  0.44444444000000000        0.0000000000000000        0.0000000000000000     
  0.55555555999999995        0.0000000000000000        0.0000000000000000     
  0.66666667000000002        0.0000000000000000        0.0000000000000000     
  0.77777777999999997        0.0000000000000000        0.0000000000000000     
  0.88888889000000004        0.0000000000000000        0.0000000000000000     
   1.0000000000000000       0.11111111000000000        0.0000000000000000     
   1.0000000000000000       0.22222222000000000        0.0000000000000000     
   1.0000000000000000       0.33333332999999998        0.0000000000000000     
   1.0000000000000000       0.44444444000000000        0.0000000000000000     
   1.0000000000000000       0.55555555999999995        0.0000000000000000     
   1.0000000000000000       0.66666667000000002        0.0000000000000000     
   1.0000000000000000       0.77777777999999997        0.0000000000000000     
   1.0000000000000000       0.88888889000000004        0.0000000000000000     
  0.88888889000000004        1.0000000000000000        0.0000000000000000     
  0.77777777999999997        1.0000000000000000        0.0000000000000000     
  0.66666667000000002        1.0000000000000000        0.0000000000000000     
  0.55555555999999995        1.0000000000000000        0.0000000000000000     
  0.44444444000000000        1.0000000000000000        0.0000000000000000     
  0.33333332999999998        1.0000000000000000        0.0000000000000000     
  0.22222222000000000        1.0000000000000000        0.0000000000000000     
  0.11111111000000000        1.0000000000000000        0.0000000000000000     
   0.0000000000000000       0.11111111000000000        0.0000000000000000     
   0.0000000000000000       0.22222222000000000        0.0000000000000000     
[...]
 CELL_DATA         354
 SCALARS E float
 LOOKUP_TABLE default
    0.66962487435467998864E+00
    0.60165428716465674253E+00
    0.62546425800241556292E+00
    0.58604521872282999695E+00
    0.67122503861747773168E+00
    0.61374690532271014565E+00
    0.69173166767148286382E+00
    0.63304402978932738932E+00
    0.67543626980336091137E+00
    0.65579866580939583098E+00
    0.63612310508633629347E+00
    0.64907016270858008955E+00
    0.62322167006329576289E+00
    0.62989364302548689345E+00
    0.63934258651301467680E+00
    0.63573748071129199122E+00
    0.64951626158923647658E+00
    0.65238216852410624291E+00
    0.70989764930060006431E+00
    0.70058154910836090146E+00
    0.64749327063388539827E+00
    0.67182029683283739363E+00
    0.66885075714869790531E+00
    0.64185992341460085253E+00
    0.66450883220874112922E+00
    0.66144075303441318692E+00
    0.66881073115206834956E+00
    0.69234195181837387967E+00
    0.61319131552862782275E+00
    0.61936603716387395036E+00
    0.65688951369068970809E+00
    0.62189467850133695048E+00
    0.67025167565674781400E+00
    0.66689554279313967289E+00
    0.64289051229534388554E+00
    0.65483655177649180423E+00
    0.63676993929057124078E+00
    0.63920595218484488331E+00
    0.65285184905549920042E+00
    0.64749592209612527594E+00
    0.65006813258080820006E+00
    0.65248223066629851274E+00
    0.65403413321797188029E+00
    0.65466231774676586497E+00
    0.65677330987038795573E+00
    0.65216766017919469700E+00
    0.63832561702255596892E+00
    0.64203209771018432406E+00
    0.63209194956640502028E+00
    0.62412099764971695759E+00
    0.59818566359596303528E+00
    0.60300530492465720389E+00
    0.67402928503811776473E+00
    0.67609565810746152792E+00
    0.67095366985323856568E+00
    0.67270437116338110961E+00
    0.65162152323697608569E+00
    0.65431806713896067951E+00
    0.66727256948644786405E+00
    0.66766868128075285149E+00
    0.66741827480583792997E+00
    0.66548903454058927487E+00
    0.65019761097539463535E+00
    0.65859014798337445207E+00
    0.64464655808204407439E+00
    0.63438705268662065606E+00
    0.59254690263294906849E+00
    0.61291425389845621829E+00
    0.59490358229265161150E+00
    0.62852849159882573371E+00
    0.64856316104034106296E+00
    0.59938797112996144989E+00
    0.65079152460769207345E+00
    0.64063103733297022124E+00
    0.66296068806926466976E+00
    0.65346850540041123701E+00
    0.64923949486290200017E+00
    0.64598214284751553915E+00
    0.73291397607513519841E+00
    0.71320405928645003168E+00
    0.60422668814180258146E+00
    0.68085665530712891069E+00
    0.73267820076054546163E+00
    0.62651070938665776033E+00
    0.60907631318625443662E+00
    0.58911811316966089525E+00
    0.41080148846706515675E+00
    0.62709473855373942808E+00
    0.59531279650581936380E+00
    0.62696516742411234624E+00
    0.53128584431656045162E+00
    0.67963785561937384294E+00
    0.65872043610859132290E+00
    0.63065661382961135661E+00
    0.67149538568947608752E+00
    0.61635264542951462285E+00
    0.76796688400429280463E+00
    0.66522162530711592687E+00
    0.64464271923105975759E+00
    0.65456374642730974500E+00
    0.65210035054893156214E+00
    0.64848043154349388484E+00
    0.66488490817385825782E+00
    0.60713507164011770723E+00
    0.60182520521956783810E+00
    0.61285186770723598659E+00
    0.62548776831312280500E+00
    0.58612086778881711258E+00
    0.74758652259402369467E+00
    0.66996340901882323049E+00
    0.68439065845064050997E+00
    0.66587943784654901602E+00
    0.62787609056979298838E+00
    0.61822953420271309355E+00
    0.66330052317977317156E+00
    0.64707155330318422148E+00
    0.75008796507006281207E+00
    0.70761224273399558893E+00
    0.72228383205117840937E+00
    0.60740750911053043026E+00
    0.76828889622115459357E+00
    0.66914705190410328495E+00
    0.66691475247428422257E+00
    0.66660800396943364898E+00
    0.67409023913100429848E+00
    0.66965876126130041701E+00
    0.65966082146940541175E+00
    0.66765121881912270485E+00
    0.63672035472234500553E+00
    0.72900642267101500860E+00
    0.62325121298371111145E+00
    0.72239787932880750176E+00
    0.74415766573748642898E+00
    0.56803910839731042159E+00
    0.67991114632518723226E+00
    0.65130028398594475014E+00
    0.64009266312805301880E+00
    0.66067161786248751465E+00
    0.64473162320119892232E+00
    0.62362139614719014347E+00
    0.64680088646425781818E+00
    0.64419757906479835352E+00
    0.65685912696803261390E+00
    0.65213150639178585344E+00
    0.63806968582842737980E+00
    0.67177868183058975227E+00
    0.66926190273983032775E+00
    0.63955359223069485619E+00
    0.64259561119771790860E+00
    0.62209561871249463572E+00
    0.57914889613697229098E+00
    0.62812124876047426003E+00
    0.60573190029537826717E+00
    0.62388043198979059589E+00
    0.60715804439247444968E+00
    0.65114419612646989854E+00
    0.64791230518316089704E+00
    0.64027744956013954436E+00
    0.64932178537050633249E+00
    0.66566039647619601460E+00
    0.70744595134316889951E+00
    0.64693058046079565671E+00
    0.64905322877015647620E+00
    0.64191187800191251700E+00
    0.72642335590789552935E+00
    0.68379272316518369124E+00
    0.68629718561728836335E+00
    0.68946460713703583423E+00
    0.67470202947504731572E+00
    0.67092220498224663938E+00
    0.64560540185718506834E+00
    0.63189520456754411093E+00
    0.65531816887563598684E+00
    0.64303734462320827348E+00
    0.62205730705800832414E+00
    0.67622630048152176929E+00
    0.73965767032158746819E+00
    0.72246842943918687663E+00
    0.65037541876649274109E+00
    0.72129873849189718449E+00
    0.62128460094499193822E+00
    0.64171627155206234505E+00
    0.63428751477018896487E+00
    0.64497961487349941834E+00
    0.66113135065154848835E+00
    0.63574850531904059103E+00
    0.72429109673405112080E+00
    0.67053510505351476834E+00
    0.70740139109548794139E+00
    0.72826553311372599353E+00
    0.57189892762963701056E+00
    0.60184116799966436151E+00
    0.56216680204669255971E+00
    0.59714822014275681372E+00
    0.56460440509418263755E+00
    0.68572581526618325842E+00
    0.62054174794671090876E+00
    0.67047274991429828273E+00
    0.69052597531134407571E+00
    0.63319154570000957261E+00
    0.66006516083363897529E+00
    0.67409352769981045750E+00
    0.67488507914671180821E+00
    0.66687214813258821611E+00
    0.66538019017933147659E+00
    0.50255498001615339643E+00
    0.63219114004819743080E+00
    0.60248092962496047065E+00
    0.59916327034479688329E+00
    0.62727183477072956386E+00
    0.72279107935203734669E+00
    0.72295607306600551123E+00
    0.66234852610111960569E+00
    0.65728106678058473289E+00
    0.64686545031649966830E+00
    0.64094681104980266717E+00
    0.65120915654376942960E+00
    0.64152085250051749110E+00
    0.64435164493003505015E+00
    0.44257697341352053577E+00
    0.34385059936809092562E+00
    0.33222704552203291550E+00
    0.70962571157056963944E+00
    0.57209202038812567714E+00
    0.77218241909192619765E+00
    0.66322040273576010616E+00
    0.67058841119530010477E+00
    0.67364266391491567365E+00
    0.67627655684731491359E+00
    0.68002669313750907509E+00
    0.64121716156847985424E+00
    0.60190774465317542496E+00
    0.68978219572001309157E+00
    0.70840269968572022741E+00
    0.68618567695727283873E+00
    0.70894670296875927917E+00
    0.65365346271730917493E+00
    0.61040363704598299410E+00
    0.63737942614414500042E+00
    0.61118666034553159605E+00
    0.59888513713893531953E+00
    0.73517421116521597391E+00
    0.60197625080092254102E+00
    0.65141177221966117816E+00
    0.61095241098630836962E+00
    0.65024422804180370683E+00
    0.68020861456602765838E+00
    0.67332345019141137676E+00
    0.65919661868981316299E+00
    0.74772325668718109259E+00
    0.61515124137159216122E+00
    0.58862356116348113488E+00
    0.68054933499585190670E+00
    0.65224459492655162407E+00
    0.70895559009163833242E+00
    0.65423539655074092192E+00
    0.64716076947160905419E+00
    0.65386566932487544257E+00
    0.63881174740789203881E+00
    0.65825510132921749573E+00
    0.66994399993923803294E+00
    0.60926945882546057476E+00
    0.63262098849600811867E+00
    0.64798919117367004272E+00
    0.67572185214362356920E+00
    0.67547307660201250101E+00
    0.64668828822010127055E+00
    0.66965184698308921618E+00
    0.66007292985088084070E+00
    0.63728700810527638687E+00
    0.65294259492661921307E+00
    0.60065563308448099988E+00
    0.59634123624870349900E+00
    0.61326511102548786347E+00
    0.71922234315373234637E+00
    0.65795642675777887831E+00
    0.65497940888564709638E+00
    0.67435009446614491146E+00
    0.61937631742617527131E+00
    0.71869393838783968143E+00
    0.77365086456232312617E+00
    0.63469665722888590764E+00
    0.60939893541060030646E+00
    0.61561872204274448173E+00
    0.53940146317039494583E+00
    0.64833450445728402212E+00
    0.64651671918601605338E+00
    0.65832299696657792243E+00
    0.63688285872782146591E+00
    0.65434079910176379258E+00
    0.66356262079041505864E+00
    0.69207507216117547522E+00
    0.70025909266869712511E+00
    0.61472950693599337502E+00
    0.62274612575895027522E+00
    0.68498732973588971618E+00
    0.63985103403561505164E+00
    0.63606334385943696930E+00
    0.59844298999834477648E+00
    0.68082166101482588516E+00
    0.67533596160636888417E+00
    0.62952263076418812915E+00
    0.66565446184707133259E+00
    0.60560914157540313152E+00
    0.70622481651143542702E+00
    0.65849067693205909357E+00
    0.72946961295926504576E+00
    0.65434604419676678511E+00
    0.68400430239028364721E+00
    0.68548582518639455952E+00
    0.74557282239775246602E+00
    0.65371806001219034954E+00
    0.62895844260220346023E+00
    0.65423118151067238824E+00
    0.64379031061655123125E+00
    0.65321885190722639436E+00
    0.47834474245231928258E+00
    0.64493627560097699369E+00
    0.67339515141674910481E+00
    0.65974639070667562279E+00
    0.68407732936966858528E+00
    0.61389233173627111295E+00
    0.61927116211958010972E+00
    0.61305621580919578140E+00
    0.57747705664579918050E+00
    0.56718860012669192194E+00
    0.62247814838044623897E+00
    0.68249424998132923736E+00
    0.64343737492125274713E+00
    0.62952450997832731794E+00
    0.62679204647782760240E+00
    0.63796912354220913777E+00
    0.67419154376066714462E+00
    0.65727384023474433317E+00
    0.68136591267256763071E+00
    0.67483998648624976546E+00
    0.64077037905091438486E+00
    0.62812261988626172382E+00
    0.66450166335485816305E+00
    0.65241689974691019493E+00
    0.62880054465068557779E+00
    0.63881531228288801483E+00
    0.64367687705815335164E+00
    0.64204426455390273265E+00
    0.63556164321393904260E+00
    0.62252375171997054171E+00
    0.60393246188895688409E+00
    0.66566032401101948857E+00
    0.66533433939248198818E+00
    0.66573765611971569278E+00
    0.66235472150573249106E+00
    0.65509187828552528643E+00
    0.63738357910296594699E+00
    0.61307167137919282851E+00
