# vtk DataFile Version 3.0
LAPLACIEN  2D
ASCII
DATASET UNSTRUCTURED_GRID
 POINTS         391  float
  0.50371505999999999       0.50367786999999997        0.0000000000000000     
  0.29013556000000001       0.29014535000000002        0.0000000000000000     
  0.70165584999999997       0.71206597999999999        0.0000000000000000     
  0.70304188999999995       0.30176619999999998        0.0000000000000000     
  0.30920671999999999       0.71149227999999998        0.0000000000000000     
  0.79044983999999996       0.49884783999999999        0.0000000000000000     
  0.49102621000000002       0.20968644000000000        0.0000000000000000     
  0.49912957000000002       0.77208717000000004        0.0000000000000000     
  0.21724072999999999       0.48989389000000000        0.0000000000000000     
  0.83255933999999998       0.83046598000000005        0.0000000000000000     
  0.16646774000000000       0.17015694000000001        0.0000000000000000     
  0.83054514999999995       0.16736480000000001        0.0000000000000000     
  0.16953130999999999       0.83265739000000005        0.0000000000000000     
  0.42166445000000002       0.36345201999999999        0.0000000000000000     
  0.64462200999999997       0.56347807999999999        0.0000000000000000     
  0.35324633999999999       0.56311191000000005        0.0000000000000000     
  0.65456411000000003       0.84856860999999995        0.0000000000000000     
  0.35141477999999998       0.15563974000000000        0.0000000000000000     
  0.15290967000000000       0.35206625000000003        0.0000000000000000     
  0.82942241000000005       0.34936866000000000        0.0000000000000000     
  0.84390527000000004       0.64441694999999999        0.0000000000000000     
  0.63699174999999997       0.14284276000000001        0.0000000000000000     
  0.15620682999999999       0.64648446999999998        0.0000000000000000     
  0.36426062999999997       0.85756310999999996        0.0000000000000000     
  0.63489340999999999       0.40519052000000000        0.0000000000000000     
  0.52518872999999999       0.65957078000000002        0.0000000000000000     
  0.32158959999999998       0.42298103999999997        0.0000000000000000     
  0.58861710000000000       0.31711036999999997        0.0000000000000000     
  0.42078418000000001       0.69497151999999995        0.0000000000000000     
  0.48608786999999998       0.89334152000000000        0.0000000000000000     
   9.7084320000000002E-002  0.50000000000000000        0.0000000000000000     
  0.90291568000000000       0.50000000000000000        0.0000000000000000     
  0.51392453000000005       0.10668648999999999        0.0000000000000000     
  0.59792566999999996       0.73122754000000001        0.0000000000000000     
  0.74510058999999995       0.41124730999999998        0.0000000000000000     
  0.73212551999999997       0.90191560000000004        0.0000000000000000     
   9.7784830000000003E-002  0.26957329000000002        0.0000000000000000     
  0.26711221000000002        9.8671499999999995E-002   0.0000000000000000     
  0.90191560000000004       0.26787448000000003        0.0000000000000000     
  0.90118569000000004       0.73039821000000005        0.0000000000000000     
  0.73122947000000005        9.8017859999999998E-002   0.0000000000000000     
   9.8084400000000002E-002  0.73212551999999997        0.0000000000000000     
  0.26957329000000002       0.90221516999999996        0.0000000000000000     
  0.39283522999999998       0.25360379000000000        0.0000000000000000     
  0.74480864000000002       0.60495284999999999        0.0000000000000000     
  0.25505132000000003       0.60593640999999998        0.0000000000000000     
  0.52159297999999998       0.40671636000000000        0.0000000000000000     
  0.40768852000000000       0.47699891000000000        0.0000000000000000     
   9.1467049999999994E-002   9.1876959999999994E-002   0.0000000000000000     
  0.90842484999999995       0.90819225000000003        0.0000000000000000     
  0.90820104999999995        9.1566729999999999E-002   0.0000000000000000     
   9.1807449999999999E-002  0.90843574000000005        0.0000000000000000     
  0.27098960000000000       0.20527094000000001        0.0000000000000000     
  0.73457293999999995       0.79835387000000002        0.0000000000000000     
  0.79817773000000003       0.25713470999999999        0.0000000000000000     
  0.20747797000000001       0.72863946000000002        0.0000000000000000     
  0.20175195000000001       0.27583914999999998        0.0000000000000000     
  0.79603889000000005       0.72159035000000005        0.0000000000000000     
  0.71761666000000002       0.19748431999999999        0.0000000000000000     
  0.28462607000000001       0.80251899999999998        0.0000000000000000     
  0.69134598999999997       0.49261972999999998        0.0000000000000000     
  0.44720578999999999       0.58582935999999997        0.0000000000000000     
  0.24242269999999999       0.37228174000000003        0.0000000000000000     
  0.38265623999999998       0.93072131999999996        0.0000000000000000     
  0.60971754000000000       0.91988369000000003        0.0000000000000000     
   7.9163609999999995E-002  0.60979116000000000        0.0000000000000000     
  0.92010649000000000       0.61081183999999999        0.0000000000000000     
  0.61954008999999999        7.1530830000000004E-002   0.0000000000000000     
  0.91882012999999996       0.38917363999999999        0.0000000000000000     
  0.39086346000000000        8.0652249999999995E-002   0.0000000000000000     
   7.9183480000000001E-002  0.38966213000000000        0.0000000000000000     
  0.59114111999999996       0.49294315000000000        0.0000000000000000     
  0.63337980999999999       0.64485914000000000        0.0000000000000000     
  0.50012352000000004       0.29676539000000002        0.0000000000000000     
  0.82552601000000003       0.92753492000000004        0.0000000000000000     
  0.92774772999999999       0.82498556999999995        0.0000000000000000     
   7.1970870000000006E-002  0.17510291000000000        0.0000000000000000     
  0.17422821999999999        7.2635640000000001E-002   0.0000000000000000     
  0.82510813000000005        7.2134840000000006E-002   0.0000000000000000     
  0.92754665000000003       0.17446275999999999        0.0000000000000000     
  0.17501022999999999       0.92789951999999998        0.0000000000000000     
   7.2464680000000004E-002  0.82554053000000005        0.0000000000000000     
  0.30731587999999999       0.50885354999999999        0.0000000000000000     
  0.59033407999999998       0.22171178999999999        0.0000000000000000     
  0.40109191999999999       0.78725542000000004        0.0000000000000000     
  0.35420917000000002       0.63754104000000000        0.0000000000000000     
  0.15983976999999999       0.56665573000000002        0.0000000000000000     
  0.84108459999999996       0.56757886999999996        0.0000000000000000     
  0.83902096000000004       0.43344338999999998        0.0000000000000000     
  0.43230028999999998       0.16004268999999999        0.0000000000000000     
  0.57536027999999995       0.83041363999999995        0.0000000000000000     
  0.15771898000000001       0.42747892999999998        0.0000000000000000     
  0.34021692999999997       0.34221559000000001        0.0000000000000000     
  0.56002271999999997       0.57501117999999996        0.0000000000000000     
  0.65344329000000001       0.78147597999999996        0.0000000000000000     
   0.0000000000000000        0.0000000000000000        0.0000000000000000     
   1.0000000000000000        0.0000000000000000        0.0000000000000000     
   1.0000000000000000        1.0000000000000000        0.0000000000000000     
   0.0000000000000000        1.0000000000000000        0.0000000000000000     
  0.11111111000000000        0.0000000000000000        0.0000000000000000     
  0.22222222000000000        0.0000000000000000        0.0000000000000000     
  0.33333332999999998        0.0000000000000000        0.0000000000000000     
  0.44444444000000000        0.0000000000000000        0.0000000000000000     
  0.55555555999999995        0.0000000000000000        0.0000000000000000     
  0.66666667000000002        0.0000000000000000        0.0000000000000000     
  0.77777777999999997        0.0000000000000000        0.0000000000000000     
  0.88888889000000004        0.0000000000000000        0.0000000000000000     
   1.0000000000000000       0.11111111000000000        0.0000000000000000     
   1.0000000000000000       0.22222222000000000        0.0000000000000000     
   1.0000000000000000       0.33333332999999998        0.0000000000000000     
   1.0000000000000000       0.44444444000000000        0.0000000000000000     
   1.0000000000000000       0.55555555999999995        0.0000000000000000     
   1.0000000000000000       0.66666667000000002        0.0000000000000000     
   1.0000000000000000       0.77777777999999997        0.0000000000000000     
   1.0000000000000000       0.88888889000000004        0.0000000000000000     
  0.88888889000000004        1.0000000000000000        0.0000000000000000     
  0.77777777999999997        1.0000000000000000        0.0000000000000000     
  0.66666667000000002        1.0000000000000000        0.0000000000000000     
  0.55555555999999995        1.0000000000000000        0.0000000000000000     
  0.44444444000000000        1.0000000000000000        0.0000000000000000     
  0.33333332999999998        1.0000000000000000        0.0000000000000000     
  0.22222222000000000        1.0000000000000000        0.0000000000000000     
  0.11111111000000000        1.0000000000000000        0.0000000000000000     
   0.0000000000000000       0.11111111000000000        0.0000000000000000     
   0.0000000000000000       0.22222222000000000        0.0000000000000000     
[...]
 CELL_DATA         354
 SCALARS E float
 LOOKUP_TABLE default
    0.69120244246478235173E+00
    0.67984547635670011800E+00
    0.63631656068178288344E+00
    0.58226124672702539442E+00
    0.73630465942799239176E+00
    0.72282743959951023527E+00
    0.67281351440417713761E+00
    0.70169074740073156260E+00
    0.67595119340811771202E+00
    0.65995433324638808070E+00
    0.59154619900651661535E+00
    0.61945667400919512957E+00
    0.58694061632887917224E+00
    0.57868418403501620251E+00
    0.60943384248991050445E+00
    0.59706527160121791731E+00
    0.61292598180322532819E+00
    0.65393829323116525742E+00
    0.71461294216728066253E+00
    0.68676240074490824128E+00
    0.69298913727942301755E+00
    0.68651748212272922789E+00
    0.65166098096914892857E+00
    0.66852685901520680911E+00
    0.64094593007089162295E+00
    0.65280424497517997029E+00
    0.68231965121995374890E+00
    0.67275939481679136733E+00
    0.68022701430598564443E+00
    0.69530857854732530665E+00
    0.70986636247069356820E+00
    0.71000991536785817981E+00
    0.69243167853450227067E+00
    0.69394453646757359166E+00
    0.68698062545320792704E+00
    0.69347131855632260233E+00
    0.65565460711228196189E+00
    0.66388149543820706988E+00
    0.66618290074711938864E+00
    0.66404701710560054551E+00
    0.66932561441531468471E+00
    0.67496658553138422221E+00
    0.66864281860156993265E+00
    0.67418459478538561580E+00
    0.66503892912543327576E+00
    0.66177483827498717606E+00
    0.65409074876349171390E+00
    0.65902495743184774657E+00
    0.64163842025855621909E+00
    0.63331376090295654624E+00
    0.61488669358570491319E+00
    0.62683237447941297926E+00
    0.69953171883994169633E+00
    0.70432835474065558223E+00
    0.69075800670754072819E+00
    0.69594817044992440813E+00
    0.68801166830535798180E+00
    0.69399703844186511059E+00
    0.69898650108274085202E+00
    0.69998199044821041159E+00
    0.69096389581200967633E+00
    0.69185779568067595768E+00
    0.67701927950144591417E+00
    0.68973650209329384619E+00
    0.65818655446216989269E+00
    0.64984885598766595205E+00
    0.62751573157016682369E+00
    0.64062131085359874660E+00
    0.63117731357291573246E+00
    0.67513206190094254833E+00
    0.72285372300660299949E+00
    0.64371796451305574038E+00
    0.70793842316851351981E+00
    0.64001047116903342360E+00
    0.68741096047913863298E+00
    0.73479984198921211025E+00
    0.73942786549623140679E+00
    0.69316583167521805819E+00
    0.72183434428775383740E+00
    0.71406789220183453093E+00
    0.74276248375636966248E+00
    0.72925731289623807463E+00
    0.73700016994600026088E+00
    0.71485416500271092843E+00
    0.66476568244791123252E+00
    0.74390978730681101005E+00
    0.83788637086619277561E+00
    0.68478696065246902336E+00
    0.66659240648398687679E+00
    0.70279474463607238821E+00
    0.77389359445157346329E+00
    0.77073671616236794080E+00
    0.76381550565306599587E+00
    0.75377611281069167859E+00
    0.74785899639135378081E+00
    0.75558894877758309150E+00
    0.77352008731806731756E+00
    0.73036630171734251427E+00
    0.66494269006084849583E+00
    0.70900785911305619358E+00
    0.70365890573987799339E+00
    0.69237190698631079222E+00
    0.70724416223013442107E+00
    0.69133469643743727939E+00
    0.69622794862539794103E+00
    0.72983055721895695456E+00
    0.72127934755374056852E+00
    0.65867082130377252458E+00
    0.74290456983970898364E+00
    0.73737667424273756200E+00
    0.76770491564934517648E+00
    0.73823377155620839574E+00
    0.75673094880849833821E+00
    0.74456943871802505619E+00
    0.74773317011327311565E+00
    0.74885286649193938402E+00
    0.74996572521024706948E+00
    0.72452151422346888765E+00
    0.75312824114065168857E+00
    0.72191998560560577403E+00
    0.72693195729889403811E+00
    0.73359024650926452082E+00
    0.73795927575410591448E+00
    0.71365234511539299422E+00
    0.76073700502582630723E+00
    0.75768778483930288026E+00
    0.70289744582404922735E+00
    0.71610304851824368999E+00
    0.73431424147989332596E+00
    0.72894817322064597853E+00
    0.73082738924126566804E+00
    0.75299333781096688956E+00
    0.75436728764513016898E+00
    0.71824444962757683086E+00
    0.71762360003901004557E+00
    0.70801051035226758579E+00
    0.68237039920547648553E+00
    0.69850515962759618382E+00
    0.71334313983143460280E+00
    0.69955170810944267146E+00
    0.67097470886615262486E+00
    0.67796420498755516348E+00
    0.71094771292229030912E+00
    0.70260277007800264748E+00
    0.67670556841744078369E+00
    0.74385270134407965870E+00
    0.73871894029445028806E+00
    0.67367821708227193511E+00
    0.67887170836661092643E+00
    0.66499160711824256698E+00
    0.65837110753092920046E+00
    0.71170294394872835042E+00
    0.67944654529148185151E+00
    0.71364390722655579591E+00
    0.64505853095626775051E+00
    0.74984679024754907761E+00
    0.68835889509220116178E+00
    0.65425019074957968535E+00
    0.74077582427824772981E+00
    0.70648071376066146065E+00
    0.77313371652314155646E+00
    0.65985596966645299055E+00
    0.69411533428444505134E+00
    0.71842517840505926152E+00
    0.73789808869576534178E+00
    0.76640655329702367382E+00
    0.76158635980988709235E+00
    0.76967093013275134084E+00
    0.74364814179569493913E+00
    0.74856450201480495554E+00
    0.75438167168500458448E+00
    0.67466403000891139730E+00
    0.71201338460872476421E+00
    0.73992660024916767636E+00
    0.67812692793635487298E+00
    0.76968213162739862465E+00
    0.73384910587092633261E+00
    0.71095640151895600489E+00
    0.77441321917219874127E+00
    0.73594379060164694106E+00
    0.64854320122581399222E+00
    0.72592573869641907613E+00
    0.67887157213963977842E+00
    0.73315941980480947571E+00
    0.67645799440603004982E+00
    0.77543660720216900373E+00
    0.71406147538102215933E+00
    0.74037557505906059774E+00
    0.77140582340196250932E+00
    0.72462025653329076302E+00
    0.66117909337407643200E+00
    0.69525626595774270289E+00
    0.64252767142885747198E+00
    0.65619331501848032762E+00
    0.67736064766620107669E+00
    0.76042843773538670860E+00
    0.72707069558220704941E+00
    0.73577335289229006676E+00
    0.76629750913222882680E+00
    0.73843236166432779655E+00
    0.71755051358307053722E+00
    0.74034825940485560203E+00
    0.72518194569250626902E+00
    0.71860583851612491735E+00
    0.73111750378002704487E+00
    0.80412426179889262556E+00
    0.66714865720067961785E+00
    0.71521991198903189790E+00
    0.66345129048399220650E+00
    0.67225534169069578461E+00
    0.73837112149487704738E+00
    0.72841684623018698730E+00
    0.71852674943490491000E+00
    0.73196498055283798490E+00
    0.72372124349924449316E+00
    0.67043475379038486306E+00
    0.74295341002627190985E+00
    0.70672826140682443175E+00
    0.70016749058754335078E+00
    0.81322415918125001699E+00
    0.84370891819426629965E+00
    0.85122750794627433102E+00
    0.71663160288248994867E+00
    0.74640228042200451597E+00
    0.73770654690914927443E+00
    0.69651695270976854424E+00
    0.74429896007985840711E+00
    0.76442897490904948565E+00
    0.76137419239976011909E+00
    0.75070753007593182815E+00
    0.76665985958850968451E+00
    0.74753719122437001232E+00
    0.77531965881660735995E+00
    0.74628098231375750160E+00
    0.75113652637958017166E+00
    0.73284727114593750663E+00
    0.75998496268870918691E+00
    0.62491987492914957691E+00
    0.70050073384969691048E+00
    0.73470090397559062456E+00
    0.69723763056098819746E+00
    0.73487262008211962083E+00
    0.74384319019765077208E+00
    0.72569213367752394284E+00
    0.66228167118545355763E+00
    0.63941760007587666870E+00
    0.75789988420306719785E+00
    0.75276232423829569917E+00
    0.70357021988405077373E+00
    0.75407572098921638037E+00
    0.76414748971201151839E+00
    0.72486554729838004185E+00
    0.74428420245509463449E+00
    0.75954541423511701126E+00
    0.70421074586573140230E+00
    0.72788589853466212354E+00
    0.72453264095403135947E+00
    0.69092640976221009197E+00
    0.76295783297366537301E+00
    0.77638835016528229271E+00
    0.71106231607971226438E+00
    0.69556379095014775338E+00
    0.71303448307918293469E+00
    0.65817668760492642477E+00
    0.74588638717490596264E+00
    0.75378484902687681313E+00
    0.68080727750931857578E+00
    0.73387448587658965504E+00
    0.72641996021606780598E+00
    0.67200369270212290118E+00
    0.66115768521203877039E+00
    0.72383130772937609443E+00
    0.66302337708249570181E+00
    0.63407057308168690568E+00
    0.71427743646083197149E+00
    0.73389700581159211801E+00
    0.73926735126509413032E+00
    0.69913930545649227710E+00
    0.73585335636328164099E+00
    0.77961254015609560142E+00
    0.76984863599134301104E+00
    0.72557253597006210466E+00
    0.67980412303494497372E+00
    0.64558105928803544149E+00
    0.76324734788209736003E+00
    0.69117918347037021753E+00
    0.66378397033164682206E+00
    0.74028971857299952219E+00
    0.74147462065316049884E+00
    0.70462562852500210120E+00
    0.71646116519757729879E+00
    0.72007789180374970339E+00
    0.72126429362007749013E+00
    0.66573203518582757532E+00
    0.67057442363881913927E+00
    0.74226458090221902886E+00
    0.75288185553475805989E+00
    0.75471497053664415855E+00
    0.67915730505983507026E+00
    0.75166866628705686360E+00
    0.72815326189190154871E+00
    0.68175095737405710938E+00
    0.72761752719703554071E+00
    0.65595225595212325320E+00
    0.70380333570019559808E+00
    0.72365309452274295676E+00
    0.69435262040535339345E+00
    0.72634863428907037175E+00
    0.76109632946382133056E+00
    0.75716466522953074225E+00
    0.75076696469068870954E+00
    0.74049661233704799912E+00
    0.71441376928362854137E+00
    0.77005341432097296206E+00
    0.67636219241425088455E+00
    0.73700045501454114483E+00
    0.77880104468480204627E+00
    0.74666982833640171968E+00
    0.71221250579633621491E+00
    0.66842425559505536103E+00
    0.69926495335849470081E+00
    0.67231710700393509939E+00
    0.64586734351853813951E+00
    0.61003129873613926026E+00
    0.56378709451330166758E+00
    0.57749472583515837343E+00
    0.70757473579357688109E+00
    0.65530243042486868710E+00
    0.61031825356328406329E+00
    0.56969936682903865588E+00
    0.55241276647424175650E+00
    0.58270950314722924634E+00
    0.65849174811851551858E+00
    0.65534989228431461683E+00
    0.62781331465069034614E+00
    0.63539573924297099161E+00
    0.65819600446593018450E+00
    0.67762419365360826440E+00
    0.68189885957708828990E+00
    0.68064551617038926423E+00
    0.63151695499634852293E+00
    0.63387437610984287417E+00
    0.63830675521430702002E+00
    0.63491127433131522295E+00
    0.63004101873558582270E+00
    0.61493149173564509713E+00
    0.59973714813814915647E+00
    0.67339018145829010464E+00
    0.66437741803680938624E+00
    0.66555212213407477506E+00
    0.66657203970983469610E+00
    0.66058085204137906299E+00
    0.64047976640761017375E+00
    0.62178887812374916688E+00
