# vtk DataFile Version 3.0
LAPLACIEN  2D
ASCII
DATASET UNSTRUCTURED_GRID
 POINTS         391  float
  0.50371505999999999       0.50367786999999997        0.0000000000000000     
  0.29013556000000001       0.29014535000000002        0.0000000000000000     
  0.70165584999999997       0.71206597999999999        0.0000000000000000     
  0.70304188999999995       0.30176619999999998        0.0000000000000000     
  0.30920671999999999       0.71149227999999998        0.0000000000000000     
  0.79044983999999996       0.49884783999999999        0.0000000000000000     
  0.49102621000000002       0.20968644000000000        0.0000000000000000     
  0.49912957000000002       0.77208717000000004        0.0000000000000000     
  0.21724072999999999       0.48989389000000000        0.0000000000000000     
  0.83255933999999998       0.83046598000000005        0.0000000000000000     
  0.16646774000000000       0.17015694000000001        0.0000000000000000     
  0.83054514999999995       0.16736480000000001        0.0000000000000000     
  0.16953130999999999       0.83265739000000005        0.0000000000000000     
  0.42166445000000002       0.36345201999999999        0.0000000000000000     
  0.64462200999999997       0.56347807999999999        0.0000000000000000     
  0.35324633999999999       0.56311191000000005        0.0000000000000000     
  0.65456411000000003       0.84856860999999995        0.0000000000000000     
  0.35141477999999998       0.15563974000000000        0.0000000000000000     
  0.15290967000000000       0.35206625000000003        0.0000000000000000     
  0.82942241000000005       0.34936866000000000        0.0000000000000000     
  0.84390527000000004       0.64441694999999999        0.0000000000000000     
  0.63699174999999997       0.14284276000000001        0.0000000000000000     
  0.15620682999999999       0.64648446999999998        0.0000000000000000     
  0.36426062999999997       0.85756310999999996        0.0000000000000000     
  0.63489340999999999       0.40519052000000000        0.0000000000000000     
  0.52518872999999999       0.65957078000000002        0.0000000000000000     
  0.32158959999999998       0.42298103999999997        0.0000000000000000     
  0.58861710000000000       0.31711036999999997        0.0000000000000000     
  0.42078418000000001       0.69497151999999995        0.0000000000000000     
  0.48608786999999998       0.89334152000000000        0.0000000000000000     
   9.7084320000000002E-002  0.50000000000000000        0.0000000000000000     
  0.90291568000000000       0.50000000000000000        0.0000000000000000     
  0.51392453000000005       0.10668648999999999        0.0000000000000000     
  0.59792566999999996       0.73122754000000001        0.0000000000000000     
  0.74510058999999995       0.41124730999999998        0.0000000000000000     
  0.73212551999999997       0.90191560000000004        0.0000000000000000     
   9.7784830000000003E-002  0.26957329000000002        0.0000000000000000     
  0.26711221000000002        9.8671499999999995E-002   0.0000000000000000     
  0.90191560000000004       0.26787448000000003        0.0000000000000000     
  0.90118569000000004       0.73039821000000005        0.0000000000000000     
  0.73122947000000005        9.8017859999999998E-002   0.0000000000000000     
   9.8084400000000002E-002  0.73212551999999997        0.0000000000000000     
  0.26957329000000002       0.90221516999999996        0.0000000000000000     
  0.39283522999999998       0.25360379000000000        0.0000000000000000     
  0.74480864000000002       0.60495284999999999        0.0000000000000000     
  0.25505132000000003       0.60593640999999998        0.0000000000000000     
  0.52159297999999998       0.40671636000000000        0.0000000000000000     
  0.40768852000000000       0.47699891000000000        0.0000000000000000     
   9.1467049999999994E-002   9.1876959999999994E-002   0.0000000000000000     
  0.90842484999999995       0.90819225000000003        0.0000000000000000     
  0.90820104999999995        9.1566729999999999E-002   0.0000000000000000     
   9.1807449999999999E-002  0.90843574000000005        0.0000000000000000     
  0.27098960000000000       0.20527094000000001        0.0000000000000000     
  0.73457293999999995       0.79835387000000002        0.0000000000000000     
  0.79817773000000003       0.25713470999999999        0.0000000000000000     
  0.20747797000000001       0.72863946000000002        0.0000000000000000     
  0.20175195000000001       0.27583914999999998        0.0000000000000000     
  0.79603889000000005       0.72159035000000005        0.0000000000000000     
  0.71761666000000002       0.19748431999999999        0.0000000000000000     
  0.28462607000000001       0.80251899999999998        0.0000000000000000     
  0.69134598999999997       0.49261972999999998        0.0000000000000000     
  0.44720578999999999       0.58582935999999997        0.0000000000000000     
  0.24242269999999999       0.37228174000000003        0.0000000000000000     
  0.38265623999999998       0.93072131999999996        0.0000000000000000     
  0.60971754000000000       0.91988369000000003        0.0000000000000000     
   7.9163609999999995E-002  0.60979116000000000        0.0000000000000000     
  0.92010649000000000       0.61081183999999999        0.0000000000000000     
  0.61954008999999999        7.1530830000000004E-002   0.0000000000000000     
  0.91882012999999996       0.38917363999999999        0.0000000000000000     
  0.39086346000000000        8.0652249999999995E-002   0.0000000000000000     
   7.9183480000000001E-002  0.38966213000000000        0.0000000000000000     
  0.59114111999999996       0.49294315000000000        0.0000000000000000     
  0.63337980999999999       0.64485914000000000        0.0000000000000000     
  0.50012352000000004       0.29676539000000002        0.0000000000000000     
  0.82552601000000003       0.92753492000000004        0.0000000000000000     
  0.92774772999999999       0.82498556999999995        0.0000000000000000     
   7.1970870000000006E-002  0.17510291000000000        0.0000000000000000     
  0.17422821999999999        7.2635640000000001E-002   0.0000000000000000     
  0.82510813000000005        7.2134840000000006E-002   0.0000000000000000     
  0.92754665000000003       0.17446275999999999        0.0000000000000000     
  0.17501022999999999       0.92789951999999998        0.0000000000000000     
   7.2464680000000004E-002  0.82554053000000005        0.0000000000000000     
  0.30731587999999999       0.50885354999999999        0.0000000000000000     
  0.59033407999999998       0.22171178999999999        0.0000000000000000     
  0.40109191999999999       0.78725542000000004        0.0000000000000000     
  0.35420917000000002       0.63754104000000000        0.0000000000000000     
  0.15983976999999999       0.56665573000000002        0.0000000000000000     
  0.84108459999999996       0.56757886999999996        0.0000000000000000     
  0.83902096000000004       0.43344338999999998        0.0000000000000000     
  0.43230028999999998       0.16004268999999999        0.0000000000000000     
  0.57536027999999995       0.83041363999999995        0.0000000000000000     
  0.15771898000000001       0.42747892999999998        0.0000000000000000     
  0.34021692999999997       0.34221559000000001        0.0000000000000000     
  0.56002271999999997       0.57501117999999996        0.0000000000000000     
  0.65344329000000001       0.78147597999999996        0.0000000000000000     
   0.0000000000000000        0.0000000000000000        0.0000000000000000     
   1.0000000000000000        0.0000000000000000        0.0000000000000000     
   1.0000000000000000        1.0000000000000000        0.0000000000000000     
   0.0000000000000000        1.0000000000000000        0.0000000000000000     
  0.11111111000000000        0.0000000000000000        0.0000000000000000     
  0.22222222000000000        0.0000000000000000        0.0000000000000000     
  0.33333332999999998        0.0000000000000000        0.0000000000000000     
  0.44444444000000000        0.0000000000000000        0.0000000000000000     
  0.55555555999999995        0.0000000000000000        0.0000000000000000     
  0.66666667000000002        0.0000000000000000        0.0000000000000000     
  0.77777777999999997        0.0000000000000000        0.0000000000000000     
  0.88888889000000004        0.0000000000000000        0.0000000000000000     
   1.0000000000000000       0.11111111000000000        0.0000000000000000     
   1.0000000000000000       0.22222222000000000        0.0000000000000000     
   1.0000000000000000       0.33333332999999998        0.0000000000000000     
   1.0000000000000000       0.44444444000000000        0.0000000000000000     
   1.0000000000000000       0.55555555999999995        0.0000000000000000     
   1.0000000000000000       0.66666667000000002        0.0000000000000000     
   1.0000000000000000       0.77777777999999997        0.0000000000000000     
   1.0000000000000000       0.88888889000000004        0.0000000000000000     
  0.88888889000000004        1.0000000000000000        0.0000000000000000     
  0.77777777999999997        1.0000000000000000        0.0000000000000000     
  0.66666667000000002        1.0000000000000000        0.0000000000000000     
  0.55555555999999995        1.0000000000000000        0.0000000000000000     
  0.44444444000000000        1.0000000000000000        0.0000000000000000     
  0.33333332999999998        1.0000000000000000        0.0000000000000000     
  0.22222222000000000        1.0000000000000000        0.0000000000000000     
  0.11111111000000000        1.0000000000000000        0.0000000000000000     
   0.0000000000000000       0.11111111000000000        0.0000000000000000     
   0.0000000000000000       0.22222222000000000        0.0000000000000000     
[...]
 CELL_DATA         354
 SCALARS E float
 LOOKUP_TABLE default
    0.69029500554129386014E+00
    0.67859132398169907940E+00
    0.63558625516749756024E+00
    0.58158152648944194674E+00
    0.73603474124766221642E+00
    0.72226407785798774075E+00
    0.67158249055323004928E+00
    0.70072001655425464328E+00
    0.67515278215156715458E+00
    0.65897109362909012109E+00
    0.58998234774744728881E+00
    0.61804854783961105102E+00
    0.58514726637468605919E+00
    0.57665763590210450396E+00
    0.60811200025384537504E+00
    0.59552703057838063394E+00
    0.61123580892384321572E+00
    0.65258577364420022882E+00
    0.71406618959828394022E+00
    0.68583102684036023611E+00
    0.69195103804658608659E+00
    0.68540453014121405229E+00
    0.65008579794254361950E+00
    0.66716682755335554589E+00
    0.63940310405644440461E+00
    0.65142051531055111813E+00
    0.68133800804184074806E+00
    0.67162666693792338890E+00
    0.67909249640920421598E+00
    0.69431660613986190267E+00
    0.70928347526943069656E+00
    0.70932298381652225672E+00
    0.69155157525745958313E+00
    0.69322673294299075319E+00
    0.68674296380432575670E+00
    0.69306723982571860621E+00
    0.65502874167096147850E+00
    0.66327456282182983838E+00
    0.66528543784830029839E+00
    0.66327291342103977811E+00
    0.66853861339425180166E+00
    0.67425482527153812740E+00
    0.66771527822534781915E+00
    0.67339090523243561037E+00
    0.66397978137205970750E+00
    0.66079629755220004039E+00
    0.65334065962879439571E+00
    0.65823888507480154964E+00
    0.64079240934817149888E+00
    0.63261364526268093478E+00
    0.61442378494272686940E+00
    0.62633600994191707123E+00
    0.69865531986444429080E+00
    0.70349845875910876902E+00
    0.68962246756206990739E+00
    0.69492867062994734262E+00
    0.68699797611646751250E+00
    0.69310256886597576553E+00
    0.69818800503511047051E+00
    0.69916581702093461015E+00
    0.69006217616478360277E+00
    0.69105857770169176746E+00
    0.67637209068042669635E+00
    0.68910658827635073997E+00
    0.65735783862231111918E+00
    0.64919006538716483856E+00
    0.62718910402541672156E+00
    0.64020008763866398382E+00
    0.63170507416792343047E+00
    0.67547112613857429597E+00
    0.72334163916960758645E+00
    0.64389304818823633880E+00
    0.70837674412748863340E+00
    0.63943818570042521010E+00
    0.68708716791248392042E+00
    0.73509673228678051871E+00
    0.73990484585553217833E+00
    0.69323066286604406727E+00
    0.72150923000864963797E+00
    0.71390281748780881621E+00
    0.74259153646703024432E+00
    0.72894030401238041339E+00
    0.73717243476854465989E+00
    0.71435291362429420570E+00
    0.66564379440342302807E+00
    0.74672952176536866453E+00
    0.84028855699135363011E+00
    0.68698847320275524542E+00
    0.66778166880831535401E+00
    0.70569634193881802808E+00
    0.77664460919182198850E+00
    0.77105502169081585606E+00
    0.76415100708809224894E+00
    0.75393946842350023640E+00
    0.74793487101353794966E+00
    0.75575565029570779263E+00
    0.77392115531305538667E+00
    0.73060377719558289300E+00
    0.66481932321712267075E+00
    0.70915421621065555247E+00
    0.70404549544275008000E+00
    0.69222772936040288805E+00
    0.70728418915113877574E+00
    0.69303468834188131087E+00
    0.69794377244322824971E+00
    0.73307540042094110344E+00
    0.72454867081106211213E+00
    0.66002748988371839900E+00
    0.74293893278758260657E+00
    0.73727162700846871068E+00
    0.76796877688021525366E+00
    0.73809905323693303369E+00
    0.75679405040790248549E+00
    0.74451203781234398527E+00
    0.74810620888797130235E+00
    0.74884148484153933989E+00
    0.75021538070959270517E+00
    0.72455791039068839776E+00
    0.75347264577224981608E+00
    0.72171392983663629206E+00
    0.72680663114957733129E+00
    0.73357814926356323948E+00
    0.73788794017412429049E+00
    0.71341257512495159787E+00
    0.76094679910417972746E+00
    0.75784158546060165218E+00
    0.70255166989281658818E+00
    0.71581305766093505927E+00
    0.73418920363332740298E+00
    0.72890810595265020932E+00
    0.73045427726327094575E+00
    0.75334356363311261173E+00
    0.75464659502058417662E+00
    0.71778224941977608609E+00
    0.71721756054460406027E+00
    0.70822834002321033431E+00
    0.68249252688553807555E+00
    0.69812857965897578971E+00
    0.71390558457889918831E+00
    0.70016859689973476311E+00
    0.67062349540878518628E+00
    0.67762697935681814876E+00
    0.71082863992050027147E+00
    0.70243625631838468859E+00
    0.67647153614413757516E+00
    0.74405212763604700044E+00
    0.73887334930372083885E+00
    0.67331189512667033448E+00
    0.67852376777701428612E+00
    0.66526816069252436847E+00
    0.65940850580232657219E+00
    0.71414073923044762982E+00
    0.68034707274482353334E+00
    0.71634394835739445551E+00
    0.64535229842162900038E+00
    0.75051196768261252412E+00
    0.68864357294085021266E+00
    0.65420940064785559898E+00
    0.74133689603902774845E+00
    0.70675681955095348563E+00
    0.77367157240689121700E+00
    0.65920859783697149936E+00
    0.69383622333352112932E+00
    0.71821910727150872766E+00
    0.73801551683588040298E+00
    0.76676590501252717136E+00
    0.76181818749221030806E+00
    0.77004193008007282284E+00
    0.74362429077427005808E+00
    0.74855921545231673964E+00
    0.75493586888343777730E+00
    0.67492387348172511174E+00
    0.71225540189931924040E+00
    0.74057637775490636756E+00
    0.67850878399333747204E+00
    0.76993668817878124777E+00
    0.73385808906960647846E+00
    0.71062167357693772907E+00
    0.77471972013358803011E+00
    0.73573082292312985686E+00
    0.64874440577505065875E+00
    0.72634748302855456359E+00
    0.67917314762162250830E+00
    0.73357061941700796304E+00
    0.67632691918728427005E+00
    0.77576768954851638149E+00
    0.71365182964590534453E+00
    0.74021004405924850644E+00
    0.77173440484417432650E+00
    0.72437913972217948810E+00
    0.66231266682942924184E+00
    0.69578414010932909672E+00
    0.64356012983689170337E+00
    0.65688439873906556699E+00
    0.67917734646677896393E+00
    0.76069894414751448863E+00
    0.72669240395435941160E+00
    0.73558308232808489180E+00
    0.76659252122046894762E+00
    0.73822296978140555801E+00
    0.71734483443911944978E+00
    0.74046937889959751899E+00
    0.72491827008365861129E+00
    0.71843506943423496303E+00
    0.73096953796780084200E+00
    0.80713489040164509980E+00
    0.66916173214244523137E+00
    0.71785930190071689516E+00
    0.66450497135932384829E+00
    0.67406954925064055395E+00
    0.73842169492943776632E+00
    0.72836718702245994983E+00
    0.71869974763741684143E+00
    0.73218682298744042214E+00
    0.72410710702268421546E+00
    0.67047165882785453306E+00
    0.74342761285046732311E+00
    0.70669835087568744214E+00
    0.70044199538389595450E+00
    0.81612244645651665920E+00
    0.84607360040735402062E+00
    0.85316102858198594738E+00
    0.71642030521822119837E+00
    0.74640113585941780805E+00
    0.73758410787253048113E+00
    0.69599317245862746262E+00
    0.74446793079985007502E+00
    0.76473713949352817298E+00
    0.76160368841519909822E+00
    0.75075895153057004006E+00
    0.76697084006717264337E+00
    0.74747937429015443023E+00
    0.77564697448116570744E+00
    0.74631864017227189656E+00
    0.75156511080619314846E+00
    0.73293645685725550276E+00
    0.76054078895978993735E+00
    0.62512951634841651405E+00
    0.70092585265357565394E+00
    0.73682710124892558667E+00
    0.69821980879504486062E+00
    0.73494605058604178804E+00
    0.74373920861416242811E+00
    0.72535059558654590983E+00
    0.66279121351819514363E+00
    0.63892972566479766527E+00
    0.75815605206894476353E+00
    0.75310150317052415581E+00
    0.70327832696682313074E+00
    0.75426456559558985315E+00
    0.76438651641616417454E+00
    0.72445716868965659430E+00
    0.74465699671721419239E+00
    0.76023559008831076422E+00
    0.70362002095428199944E+00
    0.72838522285845930249E+00
    0.72471207461829978413E+00
    0.69065079998307477016E+00
    0.76314096681757292995E+00
    0.77682302215288223657E+00
    0.71058319692168392390E+00
    0.69619038026255153362E+00
    0.71363239962752889056E+00
    0.65767429481801054081E+00
    0.74602812261960083084E+00
    0.75413760194514889434E+00
    0.68039080622192604775E+00
    0.73393776512801500722E+00
    0.72657173617855685954E+00
    0.67160091515320186062E+00
    0.66082605336760402714E+00
    0.72598061343699882286E+00
    0.66390486913836710414E+00
    0.63410628581647521251E+00
    0.71384394030621134419E+00
    0.73447777372668576756E+00
    0.73972891355297265559E+00
    0.69881311222096553770E+00
    0.73572527828293621255E+00
    0.78019598302141013324E+00
    0.77034230595280184239E+00
    0.72533635699065535096E+00
    0.68094402763756167740E+00
    0.64710425357168877003E+00
    0.76607623830409299348E+00
    0.69119890486171264854E+00
    0.66314156328640483373E+00
    0.74005307301540668163E+00
    0.74124832503798765426E+00
    0.70446935444398861570E+00
    0.71636196183705236340E+00
    0.71988353595560550247E+00
    0.72099005464691701128E+00
    0.66561607131649447311E+00
    0.67046206885643433449E+00
    0.74253082690186777981E+00
    0.75290122449194218923E+00
    0.75471368040458497450E+00
    0.68032026905141551598E+00
    0.75182816891491910383E+00
    0.72832481967822326752E+00
    0.68476168926593694586E+00
    0.72737199078946912500E+00
    0.65631384939527337430E+00
    0.70339826990843701271E+00
    0.72414393231872153933E+00
    0.69384022106082099413E+00
    0.72675896742267087625E+00
    0.76136590624489386414E+00
    0.75726858507809446941E+00
    0.75087705128184167869E+00
    0.74090598077849345593E+00
    0.71499185574258206088E+00
    0.77034650068951449065E+00
    0.67649090648803089643E+00
    0.73745903884352426161E+00
    0.78172055988083588574E+00
    0.74660480513362104116E+00
    0.71172315010452524842E+00
    0.66722897621602395013E+00
    0.69833480548469017979E+00
    0.67083987097519204301E+00
    0.64542115012099088300E+00
    0.60912683419034741039E+00
    0.56308036859705667965E+00
    0.57694548906856191195E+00
    0.70676493527518935434E+00
    0.65378542007866080610E+00
    0.60816609189473769259E+00
    0.56713088778536224766E+00
    0.54955831100528729216E+00
    0.58029564724076798665E+00
    0.65701354498993946862E+00
    0.65361465967327048165E+00
    0.62562133773792660829E+00
    0.63332534505101434341E+00
    0.65652037018172348937E+00
    0.67625452557655574282E+00
    0.68087390755780963225E+00
    0.68003198840046563678E+00
    0.63054399941729577517E+00
    0.63264677170689553876E+00
    0.63704298240774592799E+00
    0.63359989266755500914E+00
    0.62883982051966336169E+00
    0.61382878121263606541E+00
    0.59893633978111249228E+00
    0.67210740370152854961E+00
    0.66286086524525611452E+00
    0.66409476286039514914E+00
    0.66526410397482560466E+00
    0.65941652138030115715E+00
    0.63944800316776961857E+00
    0.62111851893072667075E+00
