# vtk DataFile Version 3.0
LAPLACIEN  2D
ASCII
DATASET UNSTRUCTURED_GRID
 POINTS         391  float
  0.50371505999999999       0.50367786999999997        0.0000000000000000     
  0.29013556000000001       0.29014535000000002        0.0000000000000000     
  0.70165584999999997       0.71206597999999999        0.0000000000000000     
  0.70304188999999995       0.30176619999999998        0.0000000000000000     
  0.30920671999999999       0.71149227999999998        0.0000000000000000     
  0.79044983999999996       0.49884783999999999        0.0000000000000000     
  0.49102621000000002       0.20968644000000000        0.0000000000000000     
  0.49912957000000002       0.77208717000000004        0.0000000000000000     
  0.21724072999999999       0.48989389000000000        0.0000000000000000     
  0.83255933999999998       0.83046598000000005        0.0000000000000000     
  0.16646774000000000       0.17015694000000001        0.0000000000000000     
  0.83054514999999995       0.16736480000000001        0.0000000000000000     
  0.16953130999999999       0.83265739000000005        0.0000000000000000     
  0.42166445000000002       0.36345201999999999        0.0000000000000000     
  0.64462200999999997       0.56347807999999999        0.0000000000000000     
  0.35324633999999999       0.56311191000000005        0.0000000000000000     
  0.65456411000000003       0.84856860999999995        0.0000000000000000     
  0.35141477999999998       0.15563974000000000        0.0000000000000000     
  0.15290967000000000       0.35206625000000003        0.0000000000000000     
  0.82942241000000005       0.34936866000000000        0.0000000000000000     
  0.84390527000000004       0.64441694999999999        0.0000000000000000     
  0.63699174999999997       0.14284276000000001        0.0000000000000000     
  0.15620682999999999       0.64648446999999998        0.0000000000000000     
  0.36426062999999997       0.85756310999999996        0.0000000000000000     
  0.63489340999999999       0.40519052000000000        0.0000000000000000     
  0.52518872999999999       0.65957078000000002        0.0000000000000000     
  0.32158959999999998       0.42298103999999997        0.0000000000000000     
  0.58861710000000000       0.31711036999999997        0.0000000000000000     
  0.42078418000000001       0.69497151999999995        0.0000000000000000     
  0.48608786999999998       0.89334152000000000        0.0000000000000000     
   9.7084320000000002E-002  0.50000000000000000        0.0000000000000000     
  0.90291568000000000       0.50000000000000000        0.0000000000000000     
  0.51392453000000005       0.10668648999999999        0.0000000000000000     
  0.59792566999999996       0.73122754000000001        0.0000000000000000     
  0.74510058999999995       0.41124730999999998        0.0000000000000000     
  0.73212551999999997       0.90191560000000004        0.0000000000000000     
   9.7784830000000003E-002  0.26957329000000002        0.0000000000000000     
  0.26711221000000002        9.8671499999999995E-002   0.0000000000000000     
  0.90191560000000004       0.26787448000000003        0.0000000000000000     
  0.90118569000000004       0.73039821000000005        0.0000000000000000     
  0.73122947000000005        9.8017859999999998E-002   0.0000000000000000     
   9.8084400000000002E-002  0.73212551999999997        0.0000000000000000     
  0.26957329000000002       0.90221516999999996        0.0000000000000000     
  0.39283522999999998       0.25360379000000000        0.0000000000000000     
  0.74480864000000002       0.60495284999999999        0.0000000000000000     
  0.25505132000000003       0.60593640999999998        0.0000000000000000     
  0.52159297999999998       0.40671636000000000        0.0000000000000000     
  0.40768852000000000       0.47699891000000000        0.0000000000000000     
   9.1467049999999994E-002   9.1876959999999994E-002   0.0000000000000000     
  0.90842484999999995       0.90819225000000003        0.0000000000000000     
  0.90820104999999995        9.1566729999999999E-002   0.0000000000000000     
   9.1807449999999999E-002  0.90843574000000005        0.0000000000000000     
  0.27098960000000000       0.20527094000000001        0.0000000000000000     
  0.73457293999999995       0.79835387000000002        0.0000000000000000     
  0.79817773000000003       0.25713470999999999        0.0000000000000000     
  0.20747797000000001       0.72863946000000002        0.0000000000000000     
  0.20175195000000001       0.27583914999999998        0.0000000000000000     
  0.79603889000000005       0.72159035000000005        0.0000000000000000     
  0.71761666000000002       0.19748431999999999        0.0000000000000000     
  0.28462607000000001       0.80251899999999998        0.0000000000000000     
  0.69134598999999997       0.49261972999999998        0.0000000000000000     
  0.44720578999999999       0.58582935999999997        0.0000000000000000     
  0.24242269999999999       0.37228174000000003        0.0000000000000000     
  0.38265623999999998       0.93072131999999996        0.0000000000000000     
  0.60971754000000000       0.91988369000000003        0.0000000000000000     
   7.9163609999999995E-002  0.60979116000000000        0.0000000000000000     
  0.92010649000000000       0.61081183999999999        0.0000000000000000     
  0.61954008999999999        7.1530830000000004E-002   0.0000000000000000     
  0.91882012999999996       0.38917363999999999        0.0000000000000000     
  0.39086346000000000        8.0652249999999995E-002   0.0000000000000000     
   7.9183480000000001E-002  0.38966213000000000        0.0000000000000000     
  0.59114111999999996       0.49294315000000000        0.0000000000000000     
  0.63337980999999999       0.64485914000000000        0.0000000000000000     
  0.50012352000000004       0.29676539000000002        0.0000000000000000     
  0.82552601000000003       0.92753492000000004        0.0000000000000000     
  0.92774772999999999       0.82498556999999995        0.0000000000000000     
   7.1970870000000006E-002  0.17510291000000000        0.0000000000000000     
  0.17422821999999999        7.2635640000000001E-002   0.0000000000000000     
  0.82510813000000005        7.2134840000000006E-002   0.0000000000000000     
  0.92754665000000003       0.17446275999999999        0.0000000000000000     
  0.17501022999999999       0.92789951999999998        0.0000000000000000     
   7.2464680000000004E-002  0.82554053000000005        0.0000000000000000     
  0.30731587999999999       0.50885354999999999        0.0000000000000000     
  0.59033407999999998       0.22171178999999999        0.0000000000000000     
  0.40109191999999999       0.78725542000000004        0.0000000000000000     
  0.35420917000000002       0.63754104000000000        0.0000000000000000     
  0.15983976999999999       0.56665573000000002        0.0000000000000000     
  0.84108459999999996       0.56757886999999996        0.0000000000000000     
  0.83902096000000004       0.43344338999999998        0.0000000000000000     
  0.43230028999999998       0.16004268999999999        0.0000000000000000     
  0.57536027999999995       0.83041363999999995        0.0000000000000000     
  0.15771898000000001       0.42747892999999998        0.0000000000000000     
  0.34021692999999997       0.34221559000000001        0.0000000000000000     
  0.56002271999999997       0.57501117999999996        0.0000000000000000     
  0.65344329000000001       0.78147597999999996        0.0000000000000000     
   0.0000000000000000        0.0000000000000000        0.0000000000000000     
   1.0000000000000000        0.0000000000000000        0.0000000000000000     
   1.0000000000000000        1.0000000000000000        0.0000000000000000     
   0.0000000000000000        1.0000000000000000        0.0000000000000000     
  0.11111111000000000        0.0000000000000000        0.0000000000000000     
  0.22222222000000000        0.0000000000000000        0.0000000000000000     
  0.33333332999999998        0.0000000000000000        0.0000000000000000     
  0.44444444000000000        0.0000000000000000        0.0000000000000000     
  0.55555555999999995        0.0000000000000000        0.0000000000000000     
  0.66666667000000002        0.0000000000000000        0.0000000000000000     
  0.77777777999999997        0.0000000000000000        0.0000000000000000     
  0.88888889000000004        0.0000000000000000        0.0000000000000000     
   1.0000000000000000       0.11111111000000000        0.0000000000000000     
   1.0000000000000000       0.22222222000000000        0.0000000000000000     
   1.0000000000000000       0.33333332999999998        0.0000000000000000     
   1.0000000000000000       0.44444444000000000        0.0000000000000000     
   1.0000000000000000       0.55555555999999995        0.0000000000000000     
   1.0000000000000000       0.66666667000000002        0.0000000000000000     
   1.0000000000000000       0.77777777999999997        0.0000000000000000     
   1.0000000000000000       0.88888889000000004        0.0000000000000000     
  0.88888889000000004        1.0000000000000000        0.0000000000000000     
  0.77777777999999997        1.0000000000000000        0.0000000000000000     
  0.66666667000000002        1.0000000000000000        0.0000000000000000     
  0.55555555999999995        1.0000000000000000        0.0000000000000000     
  0.44444444000000000        1.0000000000000000        0.0000000000000000     
  0.33333332999999998        1.0000000000000000        0.0000000000000000     
  0.22222222000000000        1.0000000000000000        0.0000000000000000     
  0.11111111000000000        1.0000000000000000        0.0000000000000000     
   0.0000000000000000       0.11111111000000000        0.0000000000000000     
   0.0000000000000000       0.22222222000000000        0.0000000000000000     
[...]
 CELL_DATA         354
 SCALARS E float
 LOOKUP_TABLE default
    0.66570776308815626798E+00
    0.59574386644143784153E+00
    0.62262880032427792010E+00
    0.58414889680726922450E+00
    0.66594213299935378636E+00
    0.60564355757990107065E+00
    0.69059391750210163963E+00
    0.62800697636673274982E+00
    0.67255345875086969265E+00
    0.65222642844919942462E+00
    0.63320953275174507446E+00
    0.64590626063347256203E+00
    0.62009022815395153927E+00
    0.62673385644633761160E+00
    0.63640362130596850321E+00
    0.63273856720989862801E+00
    0.64666655375391324245E+00
    0.64922108023312419256E+00
    0.70702687507937467259E+00
    0.69755395213716153702E+00
    0.64222166033227512383E+00
    0.66781821282068842827E+00
    0.66571699718268806389E+00
    0.63780648467439982063E+00
    0.66140584088051790346E+00
    0.65856920148296804740E+00
    0.66491874783483972955E+00
    0.68939575324448787441E+00
    0.60948645872786044730E+00
    0.61339429869450290411E+00
    0.65150202751910235577E+00
    0.61378013165313405342E+00
    0.66620916752346603928E+00
    0.66327179492380594628E+00
    0.63971040879170659732E+00
    0.65147578323994248528E+00
    0.63383978398199958271E+00
    0.63607047588125475990E+00
    0.64942730712108076574E+00
    0.64426241619965107787E+00
    0.64638302787652679449E+00
    0.64884383792984445805E+00
    0.65029469686509089321E+00
    0.65100827756549772829E+00
    0.65323934618590295820E+00
    0.64881297207197052845E+00
    0.63504422150589057150E+00
    0.63866755331034885668E+00
    0.62903397329018551076E+00
    0.62150581977209262696E+00
    0.59586761871116633582E+00
    0.60026114182397216634E+00
    0.67001652453479998428E+00
    0.67205308997146750993E+00
    0.66619855035468522608E+00
    0.66818640693994879598E+00
    0.64558105449018565736E+00
    0.64842927395509031285E+00
    0.66273143184959060203E+00
    0.66301798383567611683E+00
    0.66330146381341892337E+00
    0.66154824454061555983E+00
    0.64652729157060140341E+00
    0.65481957423376035976E+00
    0.64136746823482759794E+00
    0.63153842930450077020E+00
    0.58968294981460767090E+00
    0.61010746433254525734E+00
    0.59306595634118997040E+00
    0.62612393714635095066E+00
    0.64608429712168646830E+00
    0.59672947142653420816E+00
    0.64875263768297664058E+00
    0.63822878065891264221E+00
    0.66011312351664475084E+00
    0.65002117855547869585E+00
    0.64562173506051112604E+00
    0.64317477057897232129E+00
    0.73394135757512035667E+00
    0.71159246179476365324E+00
    0.59754601652289729419E+00
    0.67857079633406125474E+00
    0.73080183368138107447E+00
    0.62273341176639862571E+00
    0.60729639556152503754E+00
    0.58916495346047170756E+00
    0.40960650355809824497E+00
    0.62632916076777456205E+00
    0.59347403192950176631E+00
    0.62478731806614495881E+00
    0.53048626061221959560E+00
    0.67574737328818068605E+00
    0.65554431333915974545E+00
    0.62456164111105894055E+00
    0.66669185637960248769E+00
    0.60964235827240076393E+00
    0.76898580047781894820E+00
    0.66182323218153216171E+00
    0.64265315371047349036E+00
    0.65134183709009352281E+00
    0.64999028573010542154E+00
    0.64449468756658456758E+00
    0.66259238496737182800E+00
    0.60637821103922007193E+00
    0.60110029920234764322E+00
    0.61167585430864568341E+00
    0.62468004676481614368E+00
    0.58462845345113134687E+00
    0.74622080462630324682E+00
    0.66738936507137247567E+00
    0.67984660490939086142E+00
    0.66285522115141704003E+00
    0.62296062939087260002E+00
    0.61289445427838717961E+00
    0.66062958132503180053E+00
    0.64241305754791255822E+00
    0.75037402964668453720E+00
    0.70545225847626369386E+00
    0.71935959512890246259E+00
    0.60415939736179880004E+00
    0.76708918105603896009E+00
    0.66523813653376184796E+00
    0.66219348864341831540E+00
    0.66316273309944051562E+00
    0.66937821126358532098E+00
    0.66442255842404907007E+00
    0.65589643974868905296E+00
    0.66377400981859546736E+00
    0.63200497972050528883E+00
    0.72753250435128224982E+00
    0.61753884590318008918E+00
    0.72026966343715415064E+00
    0.74186749230994508686E+00
    0.55997604811619861032E+00
    0.67843559530009556191E+00
    0.64791489950881908655E+00
    0.63732047873576991304E+00
    0.65748899320116427347E+00
    0.64209511858697432274E+00
    0.62100354817008707187E+00
    0.64349508127947729896E+00
    0.63987851281646668244E+00
    0.65326749748146439867E+00
    0.64860015561482564639E+00
    0.63508948400396247891E+00
    0.66824054374511709931E+00
    0.66570762241388781177E+00
    0.63630089165390701922E+00
    0.63927843353893742950E+00
    0.61950344938977564002E+00
    0.57696358944456704876E+00
    0.62699860559431819240E+00
    0.60336882829111582183E+00
    0.62324380681831614837E+00
    0.60471373189885935240E+00
    0.64776299657584601732E+00
    0.64573199744789933074E+00
    0.63831051049853959611E+00
    0.64559702294362952824E+00
    0.66371132082892747572E+00
    0.70420973029224986917E+00
    0.64373443316871947761E+00
    0.64579003102084309162E+00
    0.63752155835121282479E+00
    0.72457458502535554423E+00
    0.68030123450370649785E+00
    0.68219466165730979768E+00
    0.68613948868310137286E+00
    0.67027911149575414296E+00
    0.66575931968576407272E+00
    0.64168751560474079909E+00
    0.62959304759212408875E+00
    0.65221652427439502642E+00
    0.63986262548482364387E+00
    0.61905157718032355341E+00
    0.67359975679881400890E+00
    0.73893908534797048127E+00
    0.72108859931451518843E+00
    0.64763459395647471339E+00
    0.72102906920192111340E+00
    0.61891859502766277679E+00
    0.63806276931868699531E+00
    0.63159294929349596437E+00
    0.64109902141731733849E+00
    0.65866651678614351884E+00
    0.63068341494130941705E+00
    0.72350614985921168909E+00
    0.66757495249037690499E+00
    0.70570044576291657279E+00
    0.72724179099092067791E+00
    0.56923464991001537783E+00
    0.59899119957692092964E+00
    0.55999977786325305651E+00
    0.59434687810661279705E+00
    0.56390436077443906182E+00
    0.68239686024799028896E+00
    0.61294844489806876719E+00
    0.66565407038546431373E+00
    0.68704234068117753242E+00
    0.62653374959319707571E+00
    0.65579210598969195356E+00
    0.67080143243127920982E+00
    0.67106189886780776011E+00
    0.66320169894562042145E+00
    0.66095366114693510085E+00
    0.50146707045964000748E+00
    0.63164941726723422555E+00
    0.60293620201668074454E+00
    0.59759766476103004518E+00
    0.62679784755387690787E+00
    0.72087649808159959264E+00
    0.72094652335310738245E+00
    0.65888029499275557743E+00
    0.65320305604536677002E+00
    0.64325435215284776369E+00
    0.63821309918071233991E+00
    0.64814462689614715796E+00
    0.63769794802223267460E+00
    0.64162681382255604134E+00
    0.44074404892323315597E+00
    0.34209028805144298113E+00
    0.33160064159655983085E+00
    0.70729416226040420224E+00
    0.56588541238590395199E+00
    0.77167427138570676703E+00
    0.65947285227348384495E+00
    0.66683427284115293077E+00
    0.66900099517405675620E+00
    0.67196151217935351507E+00
    0.67578755614316732281E+00
    0.63497447420972530363E+00
    0.59524286159493389192E+00
    0.68534084386199300987E+00
    0.70684895978582562570E+00
    0.68234741812810106865E+00
    0.70575934655982386356E+00
    0.64993516162600817321E+00
    0.60766384646212490139E+00
    0.63491364961370977404E+00
    0.61100022447384549906E+00
    0.59633964790004589940E+00
    0.73322264589333807638E+00
    0.59537587610919129322E+00
    0.64846879404614021780E+00
    0.60856825599259956050E+00
    0.64826576087024845307E+00
    0.67648986119029952402E+00
    0.66980800477472035581E+00
    0.65556410657401120723E+00
    0.74610272524006537864E+00
    0.60859347378893668967E+00
    0.58243263529796307498E+00
    0.67716396194066597047E+00
    0.64849527477733137637E+00
    0.70797932246450057114E+00
    0.65142064125390541918E+00
    0.64330516211008514915E+00
    0.64996538427230310386E+00
    0.63309108937029379138E+00
    0.65323452006944326964E+00
    0.66594850303976482753E+00
    0.60667102128514804882E+00
    0.62997805504962189893E+00
    0.64498596374005356946E+00
    0.67217686645964025427E+00
    0.67202721244599006312E+00
    0.64333390105404819614E+00
    0.66618146206238626483E+00
    0.65676200256924865961E+00
    0.63399051952468887805E+00
    0.65070827747231962945E+00
    0.60037567934478852649E+00
    0.59392891382273149681E+00
    0.61077017715350689908E+00
    0.71842952340963761593E+00
    0.65537359063769629053E+00
    0.65093779386727135261E+00
    0.67102244579336722818E+00
    0.61249098087952691394E+00
    0.71540247411154311852E+00
    0.77442373789473528678E+00
    0.63078149576200193138E+00
    0.60793545504874813012E+00
    0.61484138170119428946E+00
    0.53849068043335679423E+00
    0.64568647752289631825E+00
    0.64325291579115040363E+00
    0.65174657526408186214E+00
    0.63225164333488115265E+00
    0.65104764113630753108E+00
    0.66024499926470181510E+00
    0.68877938484339429337E+00
    0.69697694349892624910E+00
    0.61156487479462617873E+00
    0.61971272982331138124E+00
    0.68183066876933662304E+00
    0.63480739069200664559E+00
    0.62884951077820816501E+00
    0.59600072834436235159E+00
    0.67694055252003493273E+00
    0.67217422525851711068E+00
    0.62855504639153525481E+00
    0.66075967724178064078E+00
    0.60302495751036988558E+00
    0.70430668962740905492E+00
    0.65581776155734861078E+00
    0.72768612221709583210E+00
    0.65110490445857771569E+00
    0.68043680363715841608E+00
    0.68126239763103924041E+00
    0.74436076982429599802E+00
    0.64994576754307431532E+00
    0.62601480717084434513E+00
    0.65013251173685981943E+00
    0.64192146313850340089E+00
    0.64977818881628668368E+00
    0.47669571800688048668E+00
    0.63812190906717425332E+00
    0.66966679133380879740E+00
    0.65579856421127469268E+00
    0.68074239952953385924E+00
    0.60752827806046039161E+00
    0.61643442471009812778E+00
    0.61045607499836540555E+00
    0.57601662629392980097E+00
    0.56500182003532262165E+00
    0.61570744860477277793E+00
    0.67972452027378815753E+00
    0.63923961300946841035E+00
    0.62551796390104652534E+00
    0.62274930608049783309E+00
    0.63398129397125724260E+00
    0.67110892026070345651E+00
    0.65341459601494200626E+00
    0.67829617693625920971E+00
    0.67197746365811417135E+00
    0.63633553847125901015E+00
    0.62062936424183479112E+00
    0.66029796671418083953E+00
    0.64899729197581046414E+00
    0.62574422836229526279E+00
    0.63543166212507917745E+00
    0.64021414261932019230E+00
    0.63857955640157593180E+00
    0.63235128753481273378E+00
    0.61962317949913847670E+00
    0.60171865648158284756E+00
    0.66152763068512410172E+00
    0.66092225060845588569E+00
    0.66141179257166393679E+00
    0.65823486786675933224E+00
    0.65134343197257682512E+00
    0.63405802188943805042E+00
    0.61052492433007965467E+00
