# vtk DataFile Version 3.0
LAPLACIEN  2D
ASCII
DATASET UNSTRUCTURED_GRID
 POINTS         391  float
  0.50371505999999999       0.50367786999999997        0.0000000000000000     
  0.29013556000000001       0.29014535000000002        0.0000000000000000     
  0.70165584999999997       0.71206597999999999        0.0000000000000000     
  0.70304188999999995       0.30176619999999998        0.0000000000000000     
  0.30920671999999999       0.71149227999999998        0.0000000000000000     
  0.79044983999999996       0.49884783999999999        0.0000000000000000     
  0.49102621000000002       0.20968644000000000        0.0000000000000000     
  0.49912957000000002       0.77208717000000004        0.0000000000000000     
  0.21724072999999999       0.48989389000000000        0.0000000000000000     
  0.83255933999999998       0.83046598000000005        0.0000000000000000     
  0.16646774000000000       0.17015694000000001        0.0000000000000000     
  0.83054514999999995       0.16736480000000001        0.0000000000000000     
  0.16953130999999999       0.83265739000000005        0.0000000000000000     
  0.42166445000000002       0.36345201999999999        0.0000000000000000     
  0.64462200999999997       0.56347807999999999        0.0000000000000000     
  0.35324633999999999       0.56311191000000005        0.0000000000000000     
  0.65456411000000003       0.84856860999999995        0.0000000000000000     
  0.35141477999999998       0.15563974000000000        0.0000000000000000     
  0.15290967000000000       0.35206625000000003        0.0000000000000000     
  0.82942241000000005       0.34936866000000000        0.0000000000000000     
  0.84390527000000004       0.64441694999999999        0.0000000000000000     
  0.63699174999999997       0.14284276000000001        0.0000000000000000     
  0.15620682999999999       0.64648446999999998        0.0000000000000000     
  0.36426062999999997       0.85756310999999996        0.0000000000000000     
  0.63489340999999999       0.40519052000000000        0.0000000000000000     
  0.52518872999999999       0.65957078000000002        0.0000000000000000     
  0.32158959999999998       0.42298103999999997        0.0000000000000000     
  0.58861710000000000       0.31711036999999997        0.0000000000000000     
  0.42078418000000001       0.69497151999999995        0.0000000000000000     
  0.48608786999999998       0.89334152000000000        0.0000000000000000     
   9.7084320000000002E-002  0.50000000000000000        0.0000000000000000     
  0.90291568000000000       0.50000000000000000        0.0000000000000000     
  0.51392453000000005       0.10668648999999999        0.0000000000000000     
  0.59792566999999996       0.73122754000000001        0.0000000000000000     
  0.74510058999999995       0.41124730999999998        0.0000000000000000     
  0.73212551999999997       0.90191560000000004        0.0000000000000000     
   9.7784830000000003E-002  0.26957329000000002        0.0000000000000000     
  0.26711221000000002        9.8671499999999995E-002   0.0000000000000000     
  0.90191560000000004       0.26787448000000003        0.0000000000000000     
  0.90118569000000004       0.73039821000000005        0.0000000000000000     
  0.73122947000000005        9.8017859999999998E-002   0.0000000000000000     
   9.8084400000000002E-002  0.73212551999999997        0.0000000000000000     
  0.26957329000000002       0.90221516999999996        0.0000000000000000     
  0.39283522999999998       0.25360379000000000        0.0000000000000000     
  0.74480864000000002       0.60495284999999999        0.0000000000000000     
  0.25505132000000003       0.60593640999999998        0.0000000000000000     
  0.52159297999999998       0.40671636000000000        0.0000000000000000     
  0.40768852000000000       0.47699891000000000        0.0000000000000000     
   9.1467049999999994E-002   9.1876959999999994E-002   0.0000000000000000     
  0.90842484999999995       0.90819225000000003        0.0000000000000000     
  0.90820104999999995        9.1566729999999999E-002   0.0000000000000000     
   9.1807449999999999E-002  0.90843574000000005        0.0000000000000000     
  0.27098960000000000       0.20527094000000001        0.0000000000000000     
  0.73457293999999995       0.79835387000000002        0.0000000000000000     
  0.79817773000000003       0.25713470999999999        0.0000000000000000     
  0.20747797000000001       0.72863946000000002        0.0000000000000000     
  0.20175195000000001       0.27583914999999998        0.0000000000000000     
  0.79603889000000005       0.72159035000000005        0.0000000000000000     
  0.71761666000000002       0.19748431999999999        0.0000000000000000     
  0.28462607000000001       0.80251899999999998        0.0000000000000000     
  0.69134598999999997       0.49261972999999998        0.0000000000000000     
  0.44720578999999999       0.58582935999999997        0.0000000000000000     
  0.24242269999999999       0.37228174000000003        0.0000000000000000     
  0.38265623999999998       0.93072131999999996        0.0000000000000000     
  0.60971754000000000       0.91988369000000003        0.0000000000000000     
   7.9163609999999995E-002  0.60979116000000000        0.0000000000000000     
  0.92010649000000000       0.61081183999999999        0.0000000000000000     
  0.61954008999999999        7.1530830000000004E-002   0.0000000000000000     
  0.91882012999999996       0.38917363999999999        0.0000000000000000     
  0.39086346000000000        8.0652249999999995E-002   0.0000000000000000     
   7.9183480000000001E-002  0.38966213000000000        0.0000000000000000     
  0.59114111999999996       0.49294315000000000        0.0000000000000000     
  0.63337980999999999       0.64485914000000000        0.0000000000000000     
  0.50012352000000004       0.29676539000000002        0.0000000000000000     
  0.82552601000000003       0.92753492000000004        0.0000000000000000     
  0.92774772999999999       0.82498556999999995        0.0000000000000000     
   7.1970870000000006E-002  0.17510291000000000        0.0000000000000000     
  0.17422821999999999        7.2635640000000001E-002   0.0000000000000000     
  0.82510813000000005        7.2134840000000006E-002   0.0000000000000000     
  0.92754665000000003       0.17446275999999999        0.0000000000000000     
  0.17501022999999999       0.92789951999999998        0.0000000000000000     
   7.2464680000000004E-002  0.82554053000000005        0.0000000000000000     
  0.30731587999999999       0.50885354999999999        0.0000000000000000     
  0.59033407999999998       0.22171178999999999        0.0000000000000000     
  0.40109191999999999       0.78725542000000004        0.0000000000000000     
  0.35420917000000002       0.63754104000000000        0.0000000000000000     
  0.15983976999999999       0.56665573000000002        0.0000000000000000     
  0.84108459999999996       0.56757886999999996        0.0000000000000000     
  0.83902096000000004       0.43344338999999998        0.0000000000000000     
  0.43230028999999998       0.16004268999999999        0.0000000000000000     
  0.57536027999999995       0.83041363999999995        0.0000000000000000     
  0.15771898000000001       0.42747892999999998        0.0000000000000000     
  0.34021692999999997       0.34221559000000001        0.0000000000000000     
  0.56002271999999997       0.57501117999999996        0.0000000000000000     
  0.65344329000000001       0.78147597999999996        0.0000000000000000     
   0.0000000000000000        0.0000000000000000        0.0000000000000000     
   1.0000000000000000        0.0000000000000000        0.0000000000000000     
   1.0000000000000000        1.0000000000000000        0.0000000000000000     
   0.0000000000000000        1.0000000000000000        0.0000000000000000     
  0.11111111000000000        0.0000000000000000        0.0000000000000000     
  0.22222222000000000        0.0000000000000000        0.0000000000000000     
  0.33333332999999998        0.0000000000000000        0.0000000000000000     
  0.44444444000000000        0.0000000000000000        0.0000000000000000     
  0.55555555999999995        0.0000000000000000        0.0000000000000000     
  0.66666667000000002        0.0000000000000000        0.0000000000000000     
  0.77777777999999997        0.0000000000000000        0.0000000000000000     
  0.88888889000000004        0.0000000000000000        0.0000000000000000     
   1.0000000000000000       0.11111111000000000        0.0000000000000000     
   1.0000000000000000       0.22222222000000000        0.0000000000000000     
   1.0000000000000000       0.33333332999999998        0.0000000000000000     
   1.0000000000000000       0.44444444000000000        0.0000000000000000     
   1.0000000000000000       0.55555555999999995        0.0000000000000000     
   1.0000000000000000       0.66666667000000002        0.0000000000000000     
   1.0000000000000000       0.77777777999999997        0.0000000000000000     
   1.0000000000000000       0.88888889000000004        0.0000000000000000     
  0.88888889000000004        1.0000000000000000        0.0000000000000000     
  0.77777777999999997        1.0000000000000000        0.0000000000000000     
  0.66666667000000002        1.0000000000000000        0.0000000000000000     
  0.55555555999999995        1.0000000000000000        0.0000000000000000     
  0.44444444000000000        1.0000000000000000        0.0000000000000000     
  0.33333332999999998        1.0000000000000000        0.0000000000000000     
  0.22222222000000000        1.0000000000000000        0.0000000000000000     
  0.11111111000000000        1.0000000000000000        0.0000000000000000     
   0.0000000000000000       0.11111111000000000        0.0000000000000000     
   0.0000000000000000       0.22222222000000000        0.0000000000000000     
[...]
 CELL_DATA         354
 SCALARS E float
 LOOKUP_TABLE default
    0.68394164305844640239E+00
    0.66981167622840542819E+00
    0.63048195839009524288E+00
    0.57683325496795667675E+00
    0.73407980377884429757E+00
    0.71826674936030310281E+00
    0.66311983754562631166E+00
    0.69390818850674518270E+00
    0.66976043577416954911E+00
    0.65215298096776930237E+00
    0.57929151944641732452E+00
    0.60835843180433935018E+00
    0.57264184084889879767E+00
    0.56256704518585309849E+00
    0.59901425923182727296E+00
    0.58484601929198820613E+00
    0.59963355860803824182E+00
    0.64311262233621335760E+00
    0.71018218936052635026E+00
    0.67926066314652167044E+00
    0.68462711193071601468E+00
    0.67755119979221634097E+00
    0.63908881273101303400E+00
    0.65764891064046671065E+00
    0.62874420714515988351E+00
    0.64187319876090154214E+00
    0.67457993759582857152E+00
    0.66377855629188675657E+00
    0.67124829670293129080E+00
    0.68741026780335023894E+00
    0.70531022188665182249E+00
    0.70454841302028725636E+00
    0.68545160916102243487E+00
    0.68817581754202339361E+00
    0.68504045125674595251E+00
    0.69020501037837167502E+00
    0.65062632582650492541E+00
    0.65899111270661048234E+00
    0.65901299722383432922E+00
    0.65783813363437659838E+00
    0.66313087639511480997E+00
    0.66935674381986676185E+00
    0.66129278646634681582E+00
    0.66789917886281968684E+00
    0.65655981517296824190E+00
    0.65391204993134999235E+00
    0.64814732783119732851E+00
    0.65276052149826457871E+00
    0.63487543376643928994E+00
    0.62769376430259149480E+00
    0.61116446885167852177E+00
    0.62283599063530570294E+00
    0.69248708231820221837E+00
    0.69763437635490821442E+00
    0.68167036827451699121E+00
    0.68776727734965770189E+00
    0.67999886893485306238E+00
    0.68693613631808569941E+00
    0.69267386592847624005E+00
    0.69351720810483419299E+00
    0.68380818222933437145E+00
    0.68549111847041366286E+00
    0.67193536292702793489E+00
    0.68474915990073426109E+00
    0.65158199037659148001E+00
    0.64455741819607914600E+00
    0.62487528686824045376E+00
    0.63722597746558062859E+00
    0.63620783168607286662E+00
    0.67806645569036072541E+00
    0.72656394355255327078E+00
    0.64566061024036658367E+00
    0.71130498165243349895E+00
    0.63558929336521374776E+00
    0.68482142310608618008E+00
    0.73710200182735563512E+00
    0.74311497975541096483E+00
    0.69367316942813816993E+00
    0.71932272546511288880E+00
    0.71294697282405905536E+00
    0.74135947817077785249E+00
    0.72676608791466779103E+00
    0.73847560620961205657E+00
    0.71095252233029149203E+00
    0.67248225662339122799E+00
    0.76544104233465670717E+00
    0.85543158359623105991E+00
    0.70264654782315161263E+00
    0.67685467271188470839E+00
    0.72551574974141164187E+00
    0.79443325993343216762E+00
    0.77315567119297290422E+00
    0.76651762829083414097E+00
    0.75512995140997973831E+00
    0.74851960848336229759E+00
    0.75693865469537902069E+00
    0.77661062567225247477E+00
    0.73220927916433742322E+00
    0.66406960496781364256E+00
    0.71025593775477702252E+00
    0.70674743795193240015E+00
    0.69144398981990495834E+00
    0.70746621760465988604E+00
    0.70532939127446092620E+00
    0.71015044053150022663E+00
    0.75440439587840402158E+00
    0.74620363374959819414E+00
    0.67020218857509927801E+00
    0.74318214484691236255E+00
    0.73658951732455013595E+00
    0.76969267226752757782E+00
    0.73719010511645388650E+00
    0.75717847496064183410E+00
    0.74413131443368973894E+00
    0.75057464999912903991E+00
    0.74874638751633670886E+00
    0.75201485426146419400E+00
    0.72490337996713494206E+00
    0.75577284035617986468E+00
    0.72047645148949768235E+00
    0.72607586285365854906E+00
    0.73352775244433887636E+00
    0.73743083104868167865E+00
    0.71172388277223652686E+00
    0.76233799814669223061E+00
    0.75885904436799622719E+00
    0.70023150106670839499E+00
    0.71385217527336175536E+00
    0.73340988662797579334E+00
    0.72871069462745541312E+00
    0.72784419914965925447E+00
    0.75569675735134023142E+00
    0.75654858553795700793E+00
    0.71465607035177503015E+00
    0.71451265568196176137E+00
    0.70981443158701928997E+00
    0.68345338482703599237E+00
    0.69553585121542571557E+00
    0.71788140234239661286E+00
    0.70455243660074540202E+00
    0.66842443360344527825E+00
    0.67551842721106503120E+00
    0.71003217014855768419E+00
    0.70131373539952446272E+00
    0.67481826445144210691E+00
    0.74540200231582542933E+00
    0.73992544825791517482E+00
    0.67080347765095960089E+00
    0.67615053112628475951E+00
    0.66756251233494190434E+00
    0.66726476594233441464E+00
    0.73084007083911606273E+00
    0.68714114993553609967E+00
    0.73474883120608913689E+00
    0.64796961771705241517E+00
    0.75494265309974151190E+00
    0.69072923607365876997E+00
    0.65415592364605879006E+00
    0.74511958398967759187E+00
    0.70862781244417760718E+00
    0.77724088393162471533E+00
    0.65481073056081295913E+00
    0.69198250504588387777E+00
    0.71666470044430130582E+00
    0.73880592074181616891E+00
    0.76916397808698677707E+00
    0.76339178519144590407E+00
    0.77248856911208685361E+00
    0.74348564555752738592E+00
    0.74850689840001360942E+00
    0.75857161975141451649E+00
    0.67699515329608572767E+00
    0.71393677465764471268E+00
    0.74493426519574457156E+00
    0.68145316010372281035E+00
    0.77158233065067238776E+00
    0.73401595264395302909E+00
    0.70841318628188165718E+00
    0.77669919437079992797E+00
    0.73422259006500101286E+00
    0.65085762507381483832E+00
    0.72916879289890768057E+00
    0.68147467947771445118E+00
    0.73630578333845875250E+00
    0.67560276377320582775E+00
    0.77791538628123790833E+00
    0.71082413019211665439E+00
    0.73901010891774743250E+00
    0.77389566194989356518E+00
    0.72272960033524913381E+00
    0.67081233421725872113E+00
    0.69941623315269785266E+00
    0.65179372325479334460E+00
    0.66223650396401656515E+00
    0.69257213120673166706E+00
    0.76245243294034581449E+00
    0.72411808416314249470E+00
    0.73426524518836777666E+00
    0.76853079186004857881E+00
    0.73677912696131020454E+00
    0.71605243261454820658E+00
    0.74120883600986053885E+00
    0.72310457897979985020E+00
    0.71728150333029572217E+00
    0.73000606703717396684E+00
    0.82632968675952489512E+00
    0.68361251737726314026E+00
    0.73593444085973447333E+00
    0.67261095524920433419E+00
    0.68720713553673973273E+00
    0.73879482889619429997E+00
    0.72811392134686347966E+00
    0.72002877623038297195E+00
    0.73378209363321855729E+00
    0.72685824539944832168E+00
    0.67111881547794516312E+00
    0.74658610524654855922E+00
    0.70653687444709833976E+00
    0.70234501684609473848E+00
    0.83451877028891952026E+00
    0.86102129943783756172E+00
    0.86547756490406202445E+00
    0.71498404017116490294E+00
    0.74639979791103894247E+00
    0.73667739326755088403E+00
    0.69242089070499801551E+00
    0.74561755118245931495E+00
    0.76681057363423354989E+00
    0.76312015078902284415E+00
    0.75106600177164839494E+00
    0.76909512440501515140E+00
    0.74706459132132863044E+00
    0.77778853774482736849E+00
    0.74654289027693354619E+00
    0.75448796492626435395E+00
    0.73358939120894428587E+00
    0.76417127090285608126E+00
    0.62723318760859581023E+00
    0.70390007854793146258E+00
    0.75154570656950192564E+00
    0.70533420574529437364E+00
    0.73552490031425332706E+00
    0.74300234441470569546E+00
    0.72302594096466521467E+00
    0.66694000686121523991E+00
    0.63580159414551629116E+00
    0.75990132940938837081E+00
    0.75540262868539309604E+00
    0.70130041544286636501E+00
    0.75555813788937808972E+00
    0.76599726959362512968E+00
    0.72167102478893641049E+00
    0.74718464431763409461E+00
    0.76486952175026312606E+00
    0.69962173855523956956E+00
    0.73169541363532508704E+00
    0.72595692489282337423E+00
    0.68893522644848004255E+00
    0.76433859206952026177E+00
    0.77975571657859688024E+00
    0.70729850428963048081E+00
    0.70057689484485918818E+00
    0.71750389048241247636E+00
    0.65439950925256873404E+00
    0.74695619430727033805E+00
    0.75653431345228061566E+00
    0.67752468295862655623E+00
    0.73433937961110129500E+00
    0.72756956238960912575E+00
    0.66881654702021908765E+00
    0.65858136292933067146E+00
    0.74094289092899545679E+00
    0.67061892029528813453E+00
    0.63498350826833760419E+00
    0.71087566831123227828E+00
    0.73835384192395181469E+00
    0.74299854108470753111E+00
    0.69670644942047499359E+00
    0.73492197304441375660E+00
    0.78403063474131096111E+00
    0.77372523915257396254E+00
    0.72386419183845207570E+00
    0.68935670652152736260E+00
    0.65853216493436916856E+00
    0.78450936403926130325E+00
    0.69138055346392335299E+00
    0.65875689213417587542E+00
    0.73833596713085514196E+00
    0.73962334651577754663E+00
    0.70333545404763764264E+00
    0.71562560798259022832E+00
    0.71848651397095630866E+00
    0.71902561261050146335E+00
    0.66476564367902024610E+00
    0.66963928463947142156E+00
    0.74430018027907152156E+00
    0.75299371769629619422E+00
    0.75463014134097416985E+00
    0.68918364283921984548E+00
    0.75293276897731442610E+00
    0.72961437839753917611E+00
    0.70563516134051784690E+00
    0.72576419649323864469E+00
    0.65922266828237807701E+00
    0.70061279645510021741E+00
    0.72753327917038235206E+00
    0.69049212739124321558E+00
    0.72949244317908279456E+00
    0.76316387581773548199E+00
    0.75791675336033403898E+00
    0.75158132888495232660E+00
    0.74362026367200972921E+00
    0.71895445637304045139E+00
    0.77227449434838724152E+00
    0.67740380974411884552E+00
    0.74055542812375074746E+00
    0.80048238886007150317E+00
    0.74614038505481672381E+00
    0.70826977333278628990E+00
    0.65888965773068863818E+00
    0.69181280596214689282E+00
    0.66051272871049337976E+00
    0.64228297694849523225E+00
    0.60282022882075192438E+00
    0.55814623221285286636E+00
    0.57309976579549137821E+00
    0.70108010951668020549E+00
    0.64334184825988516288E+00
    0.59317614528397943907E+00
    0.54930108596103721652E+00
    0.52976042307881543447E+00
    0.56363922974895641627E+00
    0.64666496565946252062E+00
    0.64148059638795817960E+00
    0.61032614667470574954E+00
    0.61889530893769673092E+00
    0.64487814685396283032E+00
    0.66669319678647842586E+00
    0.67378613179040136583E+00
    0.67572784468945235048E+00
    0.62374673841911509875E+00
    0.62409899743031660435E+00
    0.62823436453632097720E+00
    0.62445467253761455240E+00
    0.62043578433771562342E+00
    0.60614445092490953915E+00
    0.59333870435549151967E+00
    0.66313715938853756704E+00
    0.65228172835893283299E+00
    0.65394114344095721769E+00
    0.65616073699049271006E+00
    0.65128827173021097696E+00
    0.63228072261465717574E+00
    0.61642783550358870581E+00
