# vtk DataFile Version 3.0
LAPLACIEN  2D
ASCII
DATASET UNSTRUCTURED_GRID
 POINTS         391  float
  0.50371505999999999       0.50367786999999997        0.0000000000000000     
  0.29013556000000001       0.29014535000000002        0.0000000000000000     
  0.70165584999999997       0.71206597999999999        0.0000000000000000     
  0.70304188999999995       0.30176619999999998        0.0000000000000000     
  0.30920671999999999       0.71149227999999998        0.0000000000000000     
  0.79044983999999996       0.49884783999999999        0.0000000000000000     
  0.49102621000000002       0.20968644000000000        0.0000000000000000     
  0.49912957000000002       0.77208717000000004        0.0000000000000000     
  0.21724072999999999       0.48989389000000000        0.0000000000000000     
  0.83255933999999998       0.83046598000000005        0.0000000000000000     
  0.16646774000000000       0.17015694000000001        0.0000000000000000     
  0.83054514999999995       0.16736480000000001        0.0000000000000000     
  0.16953130999999999       0.83265739000000005        0.0000000000000000     
  0.42166445000000002       0.36345201999999999        0.0000000000000000     
  0.64462200999999997       0.56347807999999999        0.0000000000000000     
  0.35324633999999999       0.56311191000000005        0.0000000000000000     
  0.65456411000000003       0.84856860999999995        0.0000000000000000     
  0.35141477999999998       0.15563974000000000        0.0000000000000000     
  0.15290967000000000       0.35206625000000003        0.0000000000000000     
  0.82942241000000005       0.34936866000000000        0.0000000000000000     
  0.84390527000000004       0.64441694999999999        0.0000000000000000     
  0.63699174999999997       0.14284276000000001        0.0000000000000000     
  0.15620682999999999       0.64648446999999998        0.0000000000000000     
  0.36426062999999997       0.85756310999999996        0.0000000000000000     
  0.63489340999999999       0.40519052000000000        0.0000000000000000     
  0.52518872999999999       0.65957078000000002        0.0000000000000000     
  0.32158959999999998       0.42298103999999997        0.0000000000000000     
  0.58861710000000000       0.31711036999999997        0.0000000000000000     
  0.42078418000000001       0.69497151999999995        0.0000000000000000     
  0.48608786999999998       0.89334152000000000        0.0000000000000000     
   9.7084320000000002E-002  0.50000000000000000        0.0000000000000000     
  0.90291568000000000       0.50000000000000000        0.0000000000000000     
  0.51392453000000005       0.10668648999999999        0.0000000000000000     
  0.59792566999999996       0.73122754000000001        0.0000000000000000     
  0.74510058999999995       0.41124730999999998        0.0000000000000000     
  0.73212551999999997       0.90191560000000004        0.0000000000000000     
   9.7784830000000003E-002  0.26957329000000002        0.0000000000000000     
  0.26711221000000002        9.8671499999999995E-002   0.0000000000000000     
  0.90191560000000004       0.26787448000000003        0.0000000000000000     
  0.90118569000000004       0.73039821000000005        0.0000000000000000     
  0.73122947000000005        9.8017859999999998E-002   0.0000000000000000     
   9.8084400000000002E-002  0.73212551999999997        0.0000000000000000     
  0.26957329000000002       0.90221516999999996        0.0000000000000000     
  0.39283522999999998       0.25360379000000000        0.0000000000000000     
  0.74480864000000002       0.60495284999999999        0.0000000000000000     
  0.25505132000000003       0.60593640999999998        0.0000000000000000     
  0.52159297999999998       0.40671636000000000        0.0000000000000000     
  0.40768852000000000       0.47699891000000000        0.0000000000000000     
   9.1467049999999994E-002   9.1876959999999994E-002   0.0000000000000000     
  0.90842484999999995       0.90819225000000003        0.0000000000000000     
  0.90820104999999995        9.1566729999999999E-002   0.0000000000000000     
   9.1807449999999999E-002  0.90843574000000005        0.0000000000000000     
  0.27098960000000000       0.20527094000000001        0.0000000000000000     
  0.73457293999999995       0.79835387000000002        0.0000000000000000     
  0.79817773000000003       0.25713470999999999        0.0000000000000000     
  0.20747797000000001       0.72863946000000002        0.0000000000000000     
  0.20175195000000001       0.27583914999999998        0.0000000000000000     
  0.79603889000000005       0.72159035000000005        0.0000000000000000     
  0.71761666000000002       0.19748431999999999        0.0000000000000000     
  0.28462607000000001       0.80251899999999998        0.0000000000000000     
  0.69134598999999997       0.49261972999999998        0.0000000000000000     
  0.44720578999999999       0.58582935999999997        0.0000000000000000     
  0.24242269999999999       0.37228174000000003        0.0000000000000000     
  0.38265623999999998       0.93072131999999996        0.0000000000000000     
  0.60971754000000000       0.91988369000000003        0.0000000000000000     
   7.9163609999999995E-002  0.60979116000000000        0.0000000000000000     
  0.92010649000000000       0.61081183999999999        0.0000000000000000     
  0.61954008999999999        7.1530830000000004E-002   0.0000000000000000     
  0.91882012999999996       0.38917363999999999        0.0000000000000000     
  0.39086346000000000        8.0652249999999995E-002   0.0000000000000000     
   7.9183480000000001E-002  0.38966213000000000        0.0000000000000000     
  0.59114111999999996       0.49294315000000000        0.0000000000000000     
  0.63337980999999999       0.64485914000000000        0.0000000000000000     
  0.50012352000000004       0.29676539000000002        0.0000000000000000     
  0.82552601000000003       0.92753492000000004        0.0000000000000000     
  0.92774772999999999       0.82498556999999995        0.0000000000000000     
   7.1970870000000006E-002  0.17510291000000000        0.0000000000000000     
  0.17422821999999999        7.2635640000000001E-002   0.0000000000000000     
  0.82510813000000005        7.2134840000000006E-002   0.0000000000000000     
  0.92754665000000003       0.17446275999999999        0.0000000000000000     
  0.17501022999999999       0.92789951999999998        0.0000000000000000     
   7.2464680000000004E-002  0.82554053000000005        0.0000000000000000     
  0.30731587999999999       0.50885354999999999        0.0000000000000000     
  0.59033407999999998       0.22171178999999999        0.0000000000000000     
  0.40109191999999999       0.78725542000000004        0.0000000000000000     
  0.35420917000000002       0.63754104000000000        0.0000000000000000     
  0.15983976999999999       0.56665573000000002        0.0000000000000000     
  0.84108459999999996       0.56757886999999996        0.0000000000000000     
  0.83902096000000004       0.43344338999999998        0.0000000000000000     
  0.43230028999999998       0.16004268999999999        0.0000000000000000     
  0.57536027999999995       0.83041363999999995        0.0000000000000000     
  0.15771898000000001       0.42747892999999998        0.0000000000000000     
  0.34021692999999997       0.34221559000000001        0.0000000000000000     
  0.56002271999999997       0.57501117999999996        0.0000000000000000     
  0.65344329000000001       0.78147597999999996        0.0000000000000000     
   0.0000000000000000        0.0000000000000000        0.0000000000000000     
   1.0000000000000000        0.0000000000000000        0.0000000000000000     
   1.0000000000000000        1.0000000000000000        0.0000000000000000     
   0.0000000000000000        1.0000000000000000        0.0000000000000000     
  0.11111111000000000        0.0000000000000000        0.0000000000000000     
  0.22222222000000000        0.0000000000000000        0.0000000000000000     
  0.33333332999999998        0.0000000000000000        0.0000000000000000     
  0.44444444000000000        0.0000000000000000        0.0000000000000000     
  0.55555555999999995        0.0000000000000000        0.0000000000000000     
  0.66666667000000002        0.0000000000000000        0.0000000000000000     
  0.77777777999999997        0.0000000000000000        0.0000000000000000     
  0.88888889000000004        0.0000000000000000        0.0000000000000000     
   1.0000000000000000       0.11111111000000000        0.0000000000000000     
   1.0000000000000000       0.22222222000000000        0.0000000000000000     
   1.0000000000000000       0.33333332999999998        0.0000000000000000     
   1.0000000000000000       0.44444444000000000        0.0000000000000000     
   1.0000000000000000       0.55555555999999995        0.0000000000000000     
   1.0000000000000000       0.66666667000000002        0.0000000000000000     
   1.0000000000000000       0.77777777999999997        0.0000000000000000     
   1.0000000000000000       0.88888889000000004        0.0000000000000000     
  0.88888889000000004        1.0000000000000000        0.0000000000000000     
  0.77777777999999997        1.0000000000000000        0.0000000000000000     
  0.66666667000000002        1.0000000000000000        0.0000000000000000     
  0.55555555999999995        1.0000000000000000        0.0000000000000000     
  0.44444444000000000        1.0000000000000000        0.0000000000000000     
  0.33333332999999998        1.0000000000000000        0.0000000000000000     
  0.22222222000000000        1.0000000000000000        0.0000000000000000     
  0.11111111000000000        1.0000000000000000        0.0000000000000000     
   0.0000000000000000       0.11111111000000000        0.0000000000000000     
   0.0000000000000000       0.22222222000000000        0.0000000000000000     
[...]
 CELL_DATA         354
 SCALARS E float
 LOOKUP_TABLE default
    0.68303366700484358098E+00
    0.66855710265646428603E+00
    0.62975380820206494636E+00
    0.57615626906989025890E+00
    0.73379133895214154748E+00
    0.71768834269287573591E+00
    0.66193334791035107756E+00
    0.69293351143823356253E+00
    0.66901621285426104979E+00
    0.65118720969929877462E+00
    0.57780110314730370735E+00
    0.60699661402657278941E+00
    0.57086303133045424030E+00
    0.56056883772962118329E+00
    0.59773373512357297344E+00
    0.58333038879571308399E+00
    0.59801087924959461795E+00
    0.64175894072981709559E+00
    0.70961941231743552727E+00
    0.67831519193313494220E+00
    0.68357303902478738777E+00
    0.67642076802927897372E+00
    0.63752302561506701828E+00
    0.65628975391659216676E+00
    0.62724079769657337113E+00
    0.64052778764332940487E+00
    0.67362990493363272826E+00
    0.66266836285542696228E+00
    0.67014138747963780673E+00
    0.68642876109043726718E+00
    0.70475707142102650415E+00
    0.70387053055731230167E+00
    0.68458910189089561271E+00
    0.68745088204472726279E+00
    0.68479172282717526432E+00
    0.68979138938761974664E+00
    0.64999443967452474880E+00
    0.65837430535225138772E+00
    0.65811868446373578134E+00
    0.65705963467171735193E+00
    0.66237201149375857234E+00
    0.66866827894038272095E+00
    0.66038489745897821503E+00
    0.66712342067614982533E+00
    0.65549943213801209474E+00
    0.65292406552236637030E+00
    0.64741316962985329120E+00
    0.65198090690442978001E+00
    0.63403106846964918386E+00
    0.62698834117647317399E+00
    0.61069617967252931567E+00
    0.62233239676538065765E+00
    0.69160127096437407079E+00
    0.69678900376172725473E+00
    0.68053439473989030262E+00
    0.68674096284758634479E+00
    0.67901186173570726723E+00
    0.68606786077541492830E+00
    0.69189645012691791681E+00
    0.69271911787914541847E+00
    0.68292281692132350557E+00
    0.68469938025238374912E+00
    0.67131426832931895277E+00
    0.68413350628819546984E+00
    0.65076072192560041607E+00
    0.64389282248814017073E+00
    0.62454085764081246346E+00
    0.63679749985055345007E+00
    0.63697131955100338985E+00
    0.67847132112802588377E+00
    0.72699922310625830768E+00
    0.64599552249821223793E+00
    0.71170578097735892609E+00
    0.63506338950233331975E+00
    0.68449844269282533737E+00
    0.73737832860301344429E+00
    0.74355554121082367836E+00
    0.69373695597211737507E+00
    0.71902301741032015325E+00
    0.71283786172887442234E+00
    0.74117901453382506460E+00
    0.72646244631966738758E+00
    0.73867506631960422325E+00
    0.71048170201716953631E+00
    0.67355996266549378326E+00
    0.76796115737566184034E+00
    0.85738130821427926964E+00
    0.70489978311719470039E+00
    0.67825154705407941780E+00
    0.72826290901088208685E+00
    0.79677208525148202067E+00
    0.77343817380308910181E+00
    0.76685796967999442231E+00
    0.75530659314490367073E+00
    0.74861054460453080317E+00
    0.75710941135036990968E+00
    0.77697868704324224431E+00
    0.73243072706273648631E+00
    0.66398117089001518210E+00
    0.71042381260272824406E+00
    0.70713536241532648496E+00
    0.69136215905377018665E+00
    0.70747979640116187561E+00
    0.70713440587251907843E+00
    0.71191567492988683252E+00
    0.75724879078680307209E+00
    0.74911315908083420112E+00
    0.67174885248320737041E+00
    0.74321758272447469018E+00
    0.73649949075337561855E+00
    0.76992221371807467722E+00
    0.73706520448428858305E+00
    0.75722578564892872865E+00
    0.74407980129051742857E+00
    0.75090798251650947570E+00
    0.74873115519297372966E+00
    0.75227838186987372460E+00
    0.72496487926242680899E+00
    0.75608613772081645354E+00
    0.72032733945573057532E+00
    0.72599143339126792629E+00
    0.73352514487496633944E+00
    0.73737112279719263519E+00
    0.71148148008630640593E+00
    0.76252602187646345566E+00
    0.75899605016024607185E+00
    0.69991375565315760987E+00
    0.71358158993020981420E+00
    0.73331165137523779407E+00
    0.72869372647443220181E+00
    0.72747206108476669684E+00
    0.75601924519758323395E+00
    0.75681265222828408845E+00
    0.71422462706232781038E+00
    0.71414528210322703039E+00
    0.71004972220341855405E+00
    0.68360582772058986478E+00
    0.69517222321395089057E+00
    0.71846004479428215994E+00
    0.70519289423091513491E+00
    0.66814565015505422707E+00
    0.67525095302460136359E+00
    0.70992337503968094836E+00
    0.70115928357672041571E+00
    0.67458016139641174824E+00
    0.74558839876128557567E+00
    0.74007172651747432646E+00
    0.67045288639757738558E+00
    0.67582012309808858763E+00
    0.66794372507918342574E+00
    0.66847040703774796011E+00
    0.73315859329796673194E+00
    0.68817940957778933608E+00
    0.73729360505993735142E+00
    0.64842524770736953421E+00
    0.75554450031615971728E+00
    0.69104243843753143661E+00
    0.65418267401845064946E+00
    0.74563953757343004458E+00
    0.70888684946075475324E+00
    0.77772382213532953443E+00
    0.65420095420761470439E+00
    0.69173159039639464662E+00
    0.71642795963835670392E+00
    0.73891422953508090199E+00
    0.76949053509317022481E+00
    0.76360957090095094024E+00
    0.77281776552685310655E+00
    0.74346953061601717128E+00
    0.74849710323797857825E+00
    0.75905854606708444976E+00
    0.67732999891037548590E+00
    0.71417593937638479407E+00
    0.74553202909827098743E+00
    0.68191460460186814618E+00
    0.77179927995817942943E+00
    0.73405180964044269842E+00
    0.70811672986562290699E+00
    0.77695953599180533899E+00
    0.73400523540666884337E+00
    0.65126238205844844131E+00
    0.72955467661961381776E+00
    0.68183409213780810099E+00
    0.73667746059042804596E+00
    0.67553014953124301822E+00
    0.77819898504667572858E+00
    0.71042631331634320535E+00
    0.73883315868353638400E+00
    0.77418543817109886085E+00
    0.72249966220036621056E+00
    0.67210650663117643688E+00
    0.69993386703983850872E+00
    0.65310733062720705000E+00
    0.66307364902084597880E+00
    0.69457594697608704415E+00
    0.76268380481262010306E+00
    0.72376124731473345797E+00
    0.73407925058721645861E+00
    0.76879027844482561438E+00
    0.73657639174667610682E+00
    0.71588766103451895173E+00
    0.74129975001165271387E+00
    0.72285027787633859830E+00
    0.71712275256940638535E+00
    0.72987806614166217400E+00
    0.82882008867187662027E+00
    0.68570970100157258020E+00
    0.73844809763431062954E+00
    0.67387521866696820094E+00
    0.68913321089867396463E+00
    0.73885126559087677123E+00
    0.72809073501250631821E+00
    0.72023417335610873113E+00
    0.73401558034978586775E+00
    0.72725703415799758389E+00
    0.67126891485362050194E+00
    0.74701541497325774088E+00
    0.70652173836223308712E+00
    0.70261539156238705939E+00
    0.83689619243843882401E+00
    0.86295466589954583636E+00
    0.86708813240365634201E+00
    0.71478527008127012987E+00
    0.74640028637200217521E+00
    0.73654136130775227365E+00
    0.69192392022882598379E+00
    0.74577691924115607769E+00
    0.76709487040425905491E+00
    0.76332441801731576447E+00
    0.75110251811663453214E+00
    0.76939084413053504541E+00
    0.74700416968476957003E+00
    0.77807421193128534220E+00
    0.74656971004636241140E+00
    0.75489414984323510716E+00
    0.73368630839099346908E+00
    0.76465461060422668105E+00
    0.62761840798302426236E+00
    0.70432656001792448563E+00
    0.75362143084037136465E+00
    0.70638784017260713988E+00
    0.73561674639347829352E+00
    0.74289603952192184710E+00
    0.72270298702999358209E+00
    0.66761797716697979244E+00
    0.63539866727629989995E+00
    0.76014387598686417036E+00
    0.75572106902133429074E+00
    0.70102676806063857207E+00
    0.75573909921513293675E+00
    0.76621842674025109066E+00
    0.72128321992500887827E+00
    0.74753434026077303365E+00
    0.76550409145423259361E+00
    0.69906981238158383274E+00
    0.73214498377487402525E+00
    0.72613239222377745641E+00
    0.68871848429006610193E+00
    0.76449795515604068719E+00
    0.78015913303733031015E+00
    0.70683890639541713252E+00
    0.70120963860555596270E+00
    0.71801120551095476419E+00
    0.65396454338059284428E+00
    0.74707996524757347423E+00
    0.75686633213471121717E+00
    0.67712207652768563459E+00
    0.73439111903969633843E+00
    0.72770298194834026617E+00
    0.66842364788338270998E+00
    0.65827250859475594513E+00
    0.74306250462885214958E+00
    0.67165468039657238997E+00
    0.63520042155999512090E+00
    0.71046148425751343147E+00
    0.73888204004163593464E+00
    0.74346988434658833889E+00
    0.69643007058103734153E+00
    0.73482023783541250417E+00
    0.78454450872227976532E+00
    0.77419778905738212416E+00
    0.72367876309760992282E+00
    0.69061786004087666324E+00
    0.66026241389945128368E+00
    0.78695050101618069238E+00
    0.69141337504909883283E+00
    0.65814751648362324055E+00
    0.73808238111791135694E+00
    0.73938596664747224807E+00
    0.70316797185338086873E+00
    0.71551473254617448116E+00
    0.71828245355918285409E+00
    0.71873924082596629681E+00
    0.66463878484229355070E+00
    0.66951675830196366590E+00
    0.74454010028976524982E+00
    0.75300108158906287059E+00
    0.75460815459924468485E+00
    0.69054714359887048314E+00
    0.75308907895137389144E+00
    0.72981037814134352981E+00
    0.70857254643772482616E+00
    0.72554992791856609546E+00
    0.65969527085370083253E+00
    0.70022212210939849264E+00
    0.72801034877660297795E+00
    0.69004650524385990895E+00
    0.72986391226545099808E+00
    0.76340849373608543615E+00
    0.75799860744661828882E+00
    0.75167313868926566300E+00
    0.74398749329491620230E+00
    0.71951238421918273236E+00
    0.77253280128464396626E+00
    0.67753750741843388194E+00
    0.74098210488799609585E+00
    0.80293411407310344430E+00
    0.74607275832476582789E+00
    0.70777242108909188545E+00
    0.65770214066222243421E+00
    0.69087936489273493734E+00
    0.65903926778882371273E+00
    0.64183254282883350772E+00
    0.60192273050679756530E+00
    0.55744317176672930625E+00
    0.57255020289901636943E+00
    0.70026580938030202894E+00
    0.64187466140102500400E+00
    0.59104611315106858616E+00
    0.54677756914283470735E+00
    0.52696081905641167786E+00
    0.56129579102180371386E+00
    0.64518649434660602093E+00
    0.63974890770056014322E+00
    0.60814883601795333146E+00
    0.61684309179140006663E+00
    0.64322749658536515494E+00
    0.66533110288744856664E+00
    0.67278588884805590187E+00
    0.67511164923790378811E+00
    0.62277756183564136894E+00
    0.62288448377736505002E+00
    0.62698151164176785244E+00
    0.62315321119603739319E+00
    0.61923584000350939682E+00
    0.60505165927827908590E+00
    0.59254016394008657276E+00
    0.66185691177203087587E+00
    0.65077579344812019890E+00
    0.65249762726747118080E+00
    0.65486780472019312516E+00
    0.65013031435966706084E+00
    0.63126470844784843273E+00
    0.61575798749275767463E+00
