# vtk DataFile Version 3.0
LAPLACIEN  2D
ASCII
DATASET UNSTRUCTURED_GRID
 POINTS         391  float
  0.50371505999999999       0.50367786999999997        0.0000000000000000     
  0.29013556000000001       0.29014535000000002        0.0000000000000000     
  0.70165584999999997       0.71206597999999999        0.0000000000000000     
  0.70304188999999995       0.30176619999999998        0.0000000000000000     
  0.30920671999999999       0.71149227999999998        0.0000000000000000     
  0.79044983999999996       0.49884783999999999        0.0000000000000000     
  0.49102621000000002       0.20968644000000000        0.0000000000000000     
  0.49912957000000002       0.77208717000000004        0.0000000000000000     
  0.21724072999999999       0.48989389000000000        0.0000000000000000     
  0.83255933999999998       0.83046598000000005        0.0000000000000000     
  0.16646774000000000       0.17015694000000001        0.0000000000000000     
  0.83054514999999995       0.16736480000000001        0.0000000000000000     
  0.16953130999999999       0.83265739000000005        0.0000000000000000     
  0.42166445000000002       0.36345201999999999        0.0000000000000000     
  0.64462200999999997       0.56347807999999999        0.0000000000000000     
  0.35324633999999999       0.56311191000000005        0.0000000000000000     
  0.65456411000000003       0.84856860999999995        0.0000000000000000     
  0.35141477999999998       0.15563974000000000        0.0000000000000000     
  0.15290967000000000       0.35206625000000003        0.0000000000000000     
  0.82942241000000005       0.34936866000000000        0.0000000000000000     
  0.84390527000000004       0.64441694999999999        0.0000000000000000     
  0.63699174999999997       0.14284276000000001        0.0000000000000000     
  0.15620682999999999       0.64648446999999998        0.0000000000000000     
  0.36426062999999997       0.85756310999999996        0.0000000000000000     
  0.63489340999999999       0.40519052000000000        0.0000000000000000     
  0.52518872999999999       0.65957078000000002        0.0000000000000000     
  0.32158959999999998       0.42298103999999997        0.0000000000000000     
  0.58861710000000000       0.31711036999999997        0.0000000000000000     
  0.42078418000000001       0.69497151999999995        0.0000000000000000     
  0.48608786999999998       0.89334152000000000        0.0000000000000000     
   9.7084320000000002E-002  0.50000000000000000        0.0000000000000000     
  0.90291568000000000       0.50000000000000000        0.0000000000000000     
  0.51392453000000005       0.10668648999999999        0.0000000000000000     
  0.59792566999999996       0.73122754000000001        0.0000000000000000     
  0.74510058999999995       0.41124730999999998        0.0000000000000000     
  0.73212551999999997       0.90191560000000004        0.0000000000000000     
   9.7784830000000003E-002  0.26957329000000002        0.0000000000000000     
  0.26711221000000002        9.8671499999999995E-002   0.0000000000000000     
  0.90191560000000004       0.26787448000000003        0.0000000000000000     
  0.90118569000000004       0.73039821000000005        0.0000000000000000     
  0.73122947000000005        9.8017859999999998E-002   0.0000000000000000     
   9.8084400000000002E-002  0.73212551999999997        0.0000000000000000     
  0.26957329000000002       0.90221516999999996        0.0000000000000000     
  0.39283522999999998       0.25360379000000000        0.0000000000000000     
  0.74480864000000002       0.60495284999999999        0.0000000000000000     
  0.25505132000000003       0.60593640999999998        0.0000000000000000     
  0.52159297999999998       0.40671636000000000        0.0000000000000000     
  0.40768852000000000       0.47699891000000000        0.0000000000000000     
   9.1467049999999994E-002   9.1876959999999994E-002   0.0000000000000000     
  0.90842484999999995       0.90819225000000003        0.0000000000000000     
  0.90820104999999995        9.1566729999999999E-002   0.0000000000000000     
   9.1807449999999999E-002  0.90843574000000005        0.0000000000000000     
  0.27098960000000000       0.20527094000000001        0.0000000000000000     
  0.73457293999999995       0.79835387000000002        0.0000000000000000     
  0.79817773000000003       0.25713470999999999        0.0000000000000000     
  0.20747797000000001       0.72863946000000002        0.0000000000000000     
  0.20175195000000001       0.27583914999999998        0.0000000000000000     
  0.79603889000000005       0.72159035000000005        0.0000000000000000     
  0.71761666000000002       0.19748431999999999        0.0000000000000000     
  0.28462607000000001       0.80251899999999998        0.0000000000000000     
  0.69134598999999997       0.49261972999999998        0.0000000000000000     
  0.44720578999999999       0.58582935999999997        0.0000000000000000     
  0.24242269999999999       0.37228174000000003        0.0000000000000000     
  0.38265623999999998       0.93072131999999996        0.0000000000000000     
  0.60971754000000000       0.91988369000000003        0.0000000000000000     
   7.9163609999999995E-002  0.60979116000000000        0.0000000000000000     
  0.92010649000000000       0.61081183999999999        0.0000000000000000     
  0.61954008999999999        7.1530830000000004E-002   0.0000000000000000     
  0.91882012999999996       0.38917363999999999        0.0000000000000000     
  0.39086346000000000        8.0652249999999995E-002   0.0000000000000000     
   7.9183480000000001E-002  0.38966213000000000        0.0000000000000000     
  0.59114111999999996       0.49294315000000000        0.0000000000000000     
  0.63337980999999999       0.64485914000000000        0.0000000000000000     
  0.50012352000000004       0.29676539000000002        0.0000000000000000     
  0.82552601000000003       0.92753492000000004        0.0000000000000000     
  0.92774772999999999       0.82498556999999995        0.0000000000000000     
   7.1970870000000006E-002  0.17510291000000000        0.0000000000000000     
  0.17422821999999999        7.2635640000000001E-002   0.0000000000000000     
  0.82510813000000005        7.2134840000000006E-002   0.0000000000000000     
  0.92754665000000003       0.17446275999999999        0.0000000000000000     
  0.17501022999999999       0.92789951999999998        0.0000000000000000     
   7.2464680000000004E-002  0.82554053000000005        0.0000000000000000     
  0.30731587999999999       0.50885354999999999        0.0000000000000000     
  0.59033407999999998       0.22171178999999999        0.0000000000000000     
  0.40109191999999999       0.78725542000000004        0.0000000000000000     
  0.35420917000000002       0.63754104000000000        0.0000000000000000     
  0.15983976999999999       0.56665573000000002        0.0000000000000000     
  0.84108459999999996       0.56757886999999996        0.0000000000000000     
  0.83902096000000004       0.43344338999999998        0.0000000000000000     
  0.43230028999999998       0.16004268999999999        0.0000000000000000     
  0.57536027999999995       0.83041363999999995        0.0000000000000000     
  0.15771898000000001       0.42747892999999998        0.0000000000000000     
  0.34021692999999997       0.34221559000000001        0.0000000000000000     
  0.56002271999999997       0.57501117999999996        0.0000000000000000     
  0.65344329000000001       0.78147597999999996        0.0000000000000000     
   0.0000000000000000        0.0000000000000000        0.0000000000000000     
   1.0000000000000000        0.0000000000000000        0.0000000000000000     
   1.0000000000000000        1.0000000000000000        0.0000000000000000     
   0.0000000000000000        1.0000000000000000        0.0000000000000000     
  0.11111111000000000        0.0000000000000000        0.0000000000000000     
  0.22222222000000000        0.0000000000000000        0.0000000000000000     
  0.33333332999999998        0.0000000000000000        0.0000000000000000     
  0.44444444000000000        0.0000000000000000        0.0000000000000000     
  0.55555555999999995        0.0000000000000000        0.0000000000000000     
  0.66666667000000002        0.0000000000000000        0.0000000000000000     
  0.77777777999999997        0.0000000000000000        0.0000000000000000     
  0.88888889000000004        0.0000000000000000        0.0000000000000000     
   1.0000000000000000       0.11111111000000000        0.0000000000000000     
   1.0000000000000000       0.22222222000000000        0.0000000000000000     
   1.0000000000000000       0.33333332999999998        0.0000000000000000     
   1.0000000000000000       0.44444444000000000        0.0000000000000000     
   1.0000000000000000       0.55555555999999995        0.0000000000000000     
   1.0000000000000000       0.66666667000000002        0.0000000000000000     
   1.0000000000000000       0.77777777999999997        0.0000000000000000     
   1.0000000000000000       0.88888889000000004        0.0000000000000000     
  0.88888889000000004        1.0000000000000000        0.0000000000000000     
  0.77777777999999997        1.0000000000000000        0.0000000000000000     
  0.66666667000000002        1.0000000000000000        0.0000000000000000     
  0.55555555999999995        1.0000000000000000        0.0000000000000000     
  0.44444444000000000        1.0000000000000000        0.0000000000000000     
  0.33333332999999998        1.0000000000000000        0.0000000000000000     
  0.22222222000000000        1.0000000000000000        0.0000000000000000     
  0.11111111000000000        1.0000000000000000        0.0000000000000000     
   0.0000000000000000       0.11111111000000000        0.0000000000000000     
   0.0000000000000000       0.22222222000000000        0.0000000000000000     
[...]
 CELL_DATA         354
 SCALARS U float
 LOOKUP_TABLE default
    0.25529924392802490901E-01
    0.34403369447524936864E-01
    0.20045357631464644221E-01
    0.17921759489927288622E-01
    0.29892104063151021809E-01
    0.31888062135881890813E-01
    0.37745431162162820793E-01
    0.34226828847867742101E-01
    0.72084134397499638469E-01
    0.10816144363188368027E+00
    0.12093691458470222366E+00
    0.11587839797613834480E+00
    0.12376652887124335589E+00
    0.12297748365882930910E+00
    0.12025748936284763602E+00
    0.12242289547373894076E+00
    0.11499870530637890109E+00
    0.10998938805340166547E+00
    0.70419666966763758142E-01
    0.10399885064267980206E+00
    0.37489222230661596591E-01
    0.38838578999220260690E-01
    0.10200008986858624671E+00
    0.71111552058211957572E-01
    0.10145554266247167052E+00
    0.71498021585216522955E-01
    0.67016438830868677035E-01
    0.68535463424748019334E-01
    0.35413019512596816130E-01
    0.32520528724762770567E-01
    0.27591407729780755009E-01
    0.30294762363024321794E-01
    0.25453374198319948102E-01
    0.23917476880689944596E-01
    0.21231364787423965407E-01
    0.22459941234712378633E-01
    0.20705829215748285804E-01
    0.20887695398036830452E-01
    0.22050223794623735607E-01
    0.21461502382019419927E-01
    0.21857397369334813364E-01
    0.22068722517962512109E-01
    0.22230237599166521867E-01
    0.22187068232502635962E-01
    0.22449960967266664041E-01
    0.21649765392624083921E-01
    0.20590357159984508384E-01
    0.20808855669147412193E-01
    0.20277894964911204190E-01
    0.19512292338711951373E-01
    0.18143511601877451711E-01
    0.18524685055536622980E-01
    0.26693371735437065873E-01
    0.27244505608229691029E-01
    0.28143476972957458260E-01
    0.27411131579680475534E-01
    0.27343909055175051603E-01
    0.27089716363657478926E-01
    0.26622209829669202241E-01
    0.27173527077218376929E-01
    0.25544830787883138212E-01
    0.24386428541210338622E-01
    0.21782223011939237656E-01
    0.23144694382118437964E-01
    0.21052166599191006469E-01
    0.20113511857806111449E-01
    0.18036854306037880535E-01
    0.18831170661785284065E-01
    0.13598399640605784988E+00
    0.13059165301869946063E+00
    0.12735377312539211681E+00
    0.13286666988868181538E+00
    0.12812981385158669911E+00
    0.12659352240974444670E+00
    0.12100514799366945962E+00
    0.11955960230192218263E+00
    0.12057907824539221275E+00
    0.12599470771278217796E+00
    0.38663631754997894452E-01
    0.71701159116278487260E-01
    0.36079889076148133342E-01
    0.37747559661301943734E-01
    0.73259783509731668527E-01
    0.35227922010900344918E-01
    0.13286906811082932478E+00
    0.10000315876869657339E+00
    0.62665018177657183518E-01
    0.13264934633279096277E+00
    0.13446503804430964824E+00
    0.13461089095321668307E+00
    0.96496062791094835975E-01
    0.39334741093489840325E-01
    0.37071209595270840365E-01
    0.31946446660181676558E-01
    0.30696996744623502446E-01
    0.33377288518874836942E-01
    0.41049697832289663846E-01
    0.11500388982307588326E+00
    0.12738161038085532573E+00
    0.11972648275717372168E+00
    0.12730459465241150685E+00
    0.11220007407628568297E+00
    0.12334591477142653471E+00
    0.13123852797087076638E+00
    0.13104140484523968402E+00
    0.10276146710297923148E+00
    0.10337330500516013487E+00
    0.13722934676930914621E+00
    0.41444079134728445402E-01
    0.37916103364700207146E-01
    0.33045125705470898558E-01
    0.37420890197452635895E-01
    0.34834531921558206657E-01
    0.33308203321395904450E-01
    0.11679748035978693155E+00
    0.37308292021956887541E-01
    0.48644612245373718140E-01
    0.96860664154303721674E-01
    0.87792561816500538918E-01
    0.35253794616275001272E-01
    0.57361713594415247863E-01
    0.26066174653064152350E-01
    0.28627601641316897940E-01
    0.24298134785692270671E-01
    0.30730946354388617714E-01
    0.32226642403567734574E-01
    0.23518362923747402476E-01
    0.25106797055448087236E-01
    0.36519338328666085813E-01
    0.72747971539546332775E-01
    0.34439250827936820909E-01
    0.10730606541183038138E+00
    0.73829906786643334504E-01
    0.33187132035334070135E-01
    0.36735027282848886632E-01
    0.12141770211858386730E+00
    0.12558539254783451788E+00
    0.11288958948648580849E+00
    0.12860927558431739515E+00
    0.12945383783070868455E+00
    0.12007024816389641475E+00
    0.11259789696893843236E+00
    0.22875324816144106121E-01
    0.22053895886769168955E-01
    0.20422107440954628821E-01
    0.26054323020319902771E-01
    0.25381158724251642184E-01
    0.20393787181648484474E-01
    0.20657828411420071230E-01
    0.12937609613112607820E+00
    0.13492093060321952436E+00
    0.13185961394313638895E+00
    0.13125789843134744173E+00
    0.13141761953701436294E+00
    0.13309504944345496025E+00
    0.12350286483236246060E+00
    0.12856158191611394281E+00
    0.12929857975784547763E+00
    0.12319680939694749311E+00
    0.12425392799657977716E+00
    0.78732008501606512429E-01
    0.11824711782497203394E+00
    0.11639558741346664461E+00
    0.11417033008134722105E+00
    0.78732782569142734097E-01
    0.29232128685505287535E-01
    0.31912542656396106211E-01
    0.29569524020419665766E-01
    0.30414060428013173221E-01
    0.32240915449139484483E-01
    0.12328253757990076389E+00
    0.12928849704397502030E+00
    0.12283975605559108168E+00
    0.12613447879503014715E+00
    0.12932641868162975118E+00
    0.39736255733124760392E-01
    0.71540503837259170061E-01
    0.71588082816052819868E-01
    0.38801607722653105870E-01
    0.39522658976250180096E-01
    0.13079090082882632862E+00
    0.12568470996387967609E+00
    0.12931987781522114034E+00
    0.12353375548942821527E+00
    0.12544092719407454184E+00
    0.37983282515001784430E-01
    0.71620049676567612562E-01
    0.38009017430813703264E-01
    0.40475732732921779200E-01
    0.71491983331584074701E-01
    0.13589353924316260880E+00
    0.13106279564767153722E+00
    0.13662784107528397337E+00
    0.13704612881694228088E+00
    0.13483067338795473589E+00
    0.28720544546491550558E-01
    0.32384007119627911120E-01
    0.29144494145448920225E-01
    0.30285547116405891338E-01
    0.31920464244159688083E-01
    0.24840347901257539553E-01
    0.25362507305608638503E-01
    0.26522642703523800767E-01
    0.23994334638915537639E-01
    0.27407009882039229387E-01
    0.68124816431236578929E-01
    0.13379763401325250882E+00
    0.10119918653491961902E+00
    0.13414274745944862466E+00
    0.13247862509003521803E+00
    0.75152622681124200965E-01
    0.71785168484596983962E-01
    0.11476352383143040292E+00
    0.11133599364195378989E+00
    0.12030648893000640831E+00
    0.12674782369247625247E+00
    0.12165204125296226467E+00
    0.11892647321968446983E+00
    0.12487157311113272762E+00
    0.66862258604096405645E-01
    0.61744285597953703359E-01
    0.58783961349858526724E-01
    0.10590020822599285899E+00
    0.35962326980835852830E-01
    0.71525176703639836706E-01
    0.23279766060500351604E-01
    0.26079181392138914980E-01
    0.30420546655978260991E-01
    0.30170798535145138680E-01
    0.29934755391188824780E-01
    0.33172188002635827342E-01
    0.33127080823212459726E-01
    0.38106877805916088142E-01
    0.41241778988329300115E-01
    0.11121320579777241311E+00
    0.76046159846944183514E-01
    0.12159766010253059143E+00
    0.13653713225822233790E+00
    0.12713983257767733082E+00
    0.12684949069732870397E+00
    0.13321896452908160713E+00
    0.73055998818046433141E-01
    0.35413857947809768145E-01
    0.35733385187484020817E-01
    0.13229744350814767739E+00
    0.12731801481807805687E+00
    0.29457057670447983622E-01
    0.26140325217307323891E-01
    0.23000494034218273848E-01
    0.41218829392099892717E-01
    0.34469417919171227438E-01
    0.31897094926913879820E-01
    0.11452487919665209348E+00
    0.11681736358807316700E+00
    0.38675349604813565041E-01
    0.12721045429486727008E+00
    0.11617504251735452647E+00
    0.11207820809876906099E+00
    0.34396692799318145939E-01
    0.35605220648003366168E-01
    0.25958406739356273962E-01
    0.13106635605216043761E+00
    0.12828272719353486786E+00
    0.12068158495207154113E+00
    0.26800476347150676421E-01
    0.26501790031481637505E-01
    0.21158169022983217000E-01
    0.25142971583323625584E-01
    0.23054602776008580739E-01
    0.20300606175962597477E-01
    0.12443489514347810809E+00
    0.12836112687363579465E+00
    0.13434424596794633522E+00
    0.13350464500518058331E+00
    0.40594971009899838421E-01
    0.12434948730325057209E+00
    0.11330772043212979094E+00
    0.10903107692115646121E+00
    0.32141439243672173531E-01
    0.87526878243944492008E-01
    0.42254186204588740916E-01
    0.34511071612088120575E-01
    0.13261024243428584657E+00
    0.13428456108362860077E+00
    0.98150639518264623518E-01
    0.12418938331690808352E+00
    0.11957448816338699105E+00
    0.31315102775333690521E-01
    0.33982760809141435154E-01
    0.22273310001332567026E-01
    0.23507583988190351026E-01
    0.11079980494755856113E+00
    0.75555511154666618601E-01
    0.18942537952486172143E-01
    0.19233683722415542000E-01
    0.11406455297418308104E+00
    0.34577933758142109788E-01
    0.34438634076481712543E-01
    0.13288738797525173618E+00
    0.28716310205603876038E-01
    0.11000986863135904514E+00
    0.13600790456896666436E+00
    0.28624678059834377658E-01
    0.13165211683164551593E+00
    0.10770711015324027637E+00
    0.12298711142573087729E+00
    0.58330018540948921912E-01
    0.12301735984763829956E+00
    0.29481854117767578721E-01
    0.31749096530400575111E-01
    0.42921709080161241090E-01
    0.12145145404058135807E+00
    0.12799608664999084784E+00
    0.37654029142580959511E-01
    0.12791847096953995466E+00
    0.12168474821762600979E+00
    0.68593867725273927061E-01
    0.33259010136054020790E-01
    0.26289603045163523892E-01
    0.23033920224642394359E-01
    0.33920925517883435130E-01
    0.31057249214276837906E-01
    0.19583372332879277894E-01
    0.19052845054973777811E-01
    0.17272410916325146163E-01
    0.17106517072005410218E-01
    0.31159175706923759874E-01
    0.36727007665522462543E-01
    0.75802361088510669673E-01
    0.82508856845578446015E-01
    0.82965312141359659481E-01
    0.78881933560649958315E-01
    0.71504265566491601036E-01
    0.34061693064634482320E-01
    0.64538965295474606809E-01
    0.34546935229054248628E-01
    0.32069545950749983598E-01
    0.28442820515095217082E-01
    0.24706211093726025696E-01
    0.22419177960718947307E-01
    0.19999222638479911829E-01
    0.20375459207584573074E-01
    0.20642893479277616559E-01
    0.20494706966613530225E-01
    0.20227351780155267830E-01
    0.19495128158851647571E-01
    0.18557605529608243999E-01
    0.24266962357142464468E-01
    0.24440229785164850618E-01
    0.24175100643189791072E-01
    0.23359210052158241311E-01
    0.22087429656108163029E-01
    0.20352291577204931206E-01
    0.19000480619732258714E-01
