# vtk DataFile Version 3.0
LAPLACIEN  2D
ASCII
DATASET UNSTRUCTURED_GRID
 POINTS         391  float
  0.50371505999999999       0.50367786999999997        0.0000000000000000     
  0.29013556000000001       0.29014535000000002        0.0000000000000000     
  0.70165584999999997       0.71206597999999999        0.0000000000000000     
  0.70304188999999995       0.30176619999999998        0.0000000000000000     
  0.30920671999999999       0.71149227999999998        0.0000000000000000     
  0.79044983999999996       0.49884783999999999        0.0000000000000000     
  0.49102621000000002       0.20968644000000000        0.0000000000000000     
  0.49912957000000002       0.77208717000000004        0.0000000000000000     
  0.21724072999999999       0.48989389000000000        0.0000000000000000     
  0.83255933999999998       0.83046598000000005        0.0000000000000000     
  0.16646774000000000       0.17015694000000001        0.0000000000000000     
  0.83054514999999995       0.16736480000000001        0.0000000000000000     
  0.16953130999999999       0.83265739000000005        0.0000000000000000     
  0.42166445000000002       0.36345201999999999        0.0000000000000000     
  0.64462200999999997       0.56347807999999999        0.0000000000000000     
  0.35324633999999999       0.56311191000000005        0.0000000000000000     
  0.65456411000000003       0.84856860999999995        0.0000000000000000     
  0.35141477999999998       0.15563974000000000        0.0000000000000000     
  0.15290967000000000       0.35206625000000003        0.0000000000000000     
  0.82942241000000005       0.34936866000000000        0.0000000000000000     
  0.84390527000000004       0.64441694999999999        0.0000000000000000     
  0.63699174999999997       0.14284276000000001        0.0000000000000000     
  0.15620682999999999       0.64648446999999998        0.0000000000000000     
  0.36426062999999997       0.85756310999999996        0.0000000000000000     
  0.63489340999999999       0.40519052000000000        0.0000000000000000     
  0.52518872999999999       0.65957078000000002        0.0000000000000000     
  0.32158959999999998       0.42298103999999997        0.0000000000000000     
  0.58861710000000000       0.31711036999999997        0.0000000000000000     
  0.42078418000000001       0.69497151999999995        0.0000000000000000     
  0.48608786999999998       0.89334152000000000        0.0000000000000000     
   9.7084320000000002E-002  0.50000000000000000        0.0000000000000000     
  0.90291568000000000       0.50000000000000000        0.0000000000000000     
  0.51392453000000005       0.10668648999999999        0.0000000000000000     
  0.59792566999999996       0.73122754000000001        0.0000000000000000     
  0.74510058999999995       0.41124730999999998        0.0000000000000000     
  0.73212551999999997       0.90191560000000004        0.0000000000000000     
   9.7784830000000003E-002  0.26957329000000002        0.0000000000000000     
  0.26711221000000002        9.8671499999999995E-002   0.0000000000000000     
  0.90191560000000004       0.26787448000000003        0.0000000000000000     
  0.90118569000000004       0.73039821000000005        0.0000000000000000     
  0.73122947000000005        9.8017859999999998E-002   0.0000000000000000     
   9.8084400000000002E-002  0.73212551999999997        0.0000000000000000     
  0.26957329000000002       0.90221516999999996        0.0000000000000000     
  0.39283522999999998       0.25360379000000000        0.0000000000000000     
  0.74480864000000002       0.60495284999999999        0.0000000000000000     
  0.25505132000000003       0.60593640999999998        0.0000000000000000     
  0.52159297999999998       0.40671636000000000        0.0000000000000000     
  0.40768852000000000       0.47699891000000000        0.0000000000000000     
   9.1467049999999994E-002   9.1876959999999994E-002   0.0000000000000000     
  0.90842484999999995       0.90819225000000003        0.0000000000000000     
  0.90820104999999995        9.1566729999999999E-002   0.0000000000000000     
   9.1807449999999999E-002  0.90843574000000005        0.0000000000000000     
  0.27098960000000000       0.20527094000000001        0.0000000000000000     
  0.73457293999999995       0.79835387000000002        0.0000000000000000     
  0.79817773000000003       0.25713470999999999        0.0000000000000000     
  0.20747797000000001       0.72863946000000002        0.0000000000000000     
  0.20175195000000001       0.27583914999999998        0.0000000000000000     
  0.79603889000000005       0.72159035000000005        0.0000000000000000     
  0.71761666000000002       0.19748431999999999        0.0000000000000000     
  0.28462607000000001       0.80251899999999998        0.0000000000000000     
  0.69134598999999997       0.49261972999999998        0.0000000000000000     
  0.44720578999999999       0.58582935999999997        0.0000000000000000     
  0.24242269999999999       0.37228174000000003        0.0000000000000000     
  0.38265623999999998       0.93072131999999996        0.0000000000000000     
  0.60971754000000000       0.91988369000000003        0.0000000000000000     
   7.9163609999999995E-002  0.60979116000000000        0.0000000000000000     
  0.92010649000000000       0.61081183999999999        0.0000000000000000     
  0.61954008999999999        7.1530830000000004E-002   0.0000000000000000     
  0.91882012999999996       0.38917363999999999        0.0000000000000000     
  0.39086346000000000        8.0652249999999995E-002   0.0000000000000000     
   7.9183480000000001E-002  0.38966213000000000        0.0000000000000000     
  0.59114111999999996       0.49294315000000000        0.0000000000000000     
  0.63337980999999999       0.64485914000000000        0.0000000000000000     
  0.50012352000000004       0.29676539000000002        0.0000000000000000     
  0.82552601000000003       0.92753492000000004        0.0000000000000000     
  0.92774772999999999       0.82498556999999995        0.0000000000000000     
   7.1970870000000006E-002  0.17510291000000000        0.0000000000000000     
  0.17422821999999999        7.2635640000000001E-002   0.0000000000000000     
  0.82510813000000005        7.2134840000000006E-002   0.0000000000000000     
  0.92754665000000003       0.17446275999999999        0.0000000000000000     
  0.17501022999999999       0.92789951999999998        0.0000000000000000     
   7.2464680000000004E-002  0.82554053000000005        0.0000000000000000     
  0.30731587999999999       0.50885354999999999        0.0000000000000000     
  0.59033407999999998       0.22171178999999999        0.0000000000000000     
  0.40109191999999999       0.78725542000000004        0.0000000000000000     
  0.35420917000000002       0.63754104000000000        0.0000000000000000     
  0.15983976999999999       0.56665573000000002        0.0000000000000000     
  0.84108459999999996       0.56757886999999996        0.0000000000000000     
  0.83902096000000004       0.43344338999999998        0.0000000000000000     
  0.43230028999999998       0.16004268999999999        0.0000000000000000     
  0.57536027999999995       0.83041363999999995        0.0000000000000000     
  0.15771898000000001       0.42747892999999998        0.0000000000000000     
  0.34021692999999997       0.34221559000000001        0.0000000000000000     
  0.56002271999999997       0.57501117999999996        0.0000000000000000     
  0.65344329000000001       0.78147597999999996        0.0000000000000000     
   0.0000000000000000        0.0000000000000000        0.0000000000000000     
   1.0000000000000000        0.0000000000000000        0.0000000000000000     
   1.0000000000000000        1.0000000000000000        0.0000000000000000     
   0.0000000000000000        1.0000000000000000        0.0000000000000000     
  0.11111111000000000        0.0000000000000000        0.0000000000000000     
  0.22222222000000000        0.0000000000000000        0.0000000000000000     
  0.33333332999999998        0.0000000000000000        0.0000000000000000     
  0.44444444000000000        0.0000000000000000        0.0000000000000000     
  0.55555555999999995        0.0000000000000000        0.0000000000000000     
  0.66666667000000002        0.0000000000000000        0.0000000000000000     
  0.77777777999999997        0.0000000000000000        0.0000000000000000     
  0.88888889000000004        0.0000000000000000        0.0000000000000000     
   1.0000000000000000       0.11111111000000000        0.0000000000000000     
   1.0000000000000000       0.22222222000000000        0.0000000000000000     
   1.0000000000000000       0.33333332999999998        0.0000000000000000     
   1.0000000000000000       0.44444444000000000        0.0000000000000000     
   1.0000000000000000       0.55555555999999995        0.0000000000000000     
   1.0000000000000000       0.66666667000000002        0.0000000000000000     
   1.0000000000000000       0.77777777999999997        0.0000000000000000     
   1.0000000000000000       0.88888889000000004        0.0000000000000000     
  0.88888889000000004        1.0000000000000000        0.0000000000000000     
  0.77777777999999997        1.0000000000000000        0.0000000000000000     
  0.66666667000000002        1.0000000000000000        0.0000000000000000     
  0.55555555999999995        1.0000000000000000        0.0000000000000000     
  0.44444444000000000        1.0000000000000000        0.0000000000000000     
  0.33333332999999998        1.0000000000000000        0.0000000000000000     
  0.22222222000000000        1.0000000000000000        0.0000000000000000     
  0.11111111000000000        1.0000000000000000        0.0000000000000000     
   0.0000000000000000       0.11111111000000000        0.0000000000000000     
   0.0000000000000000       0.22222222000000000        0.0000000000000000     
[...]
 CELL_DATA         354
 SCALARS U float
 LOOKUP_TABLE default
    0.26197311083315055757E+00
    0.35667313084384050237E+00
    0.21316984383696563343E+00
    0.19851681376252627853E+00
    0.32028321709710022569E+00
    0.34083508031231724011E+00
    0.39917989682787319294E+00
    0.36494205687269132277E+00
    0.45403898259013075744E+00
    0.50664708748665210347E+00
    0.58630242217896200163E+00
    0.54217223779252421423E+00
    0.60715733788825088091E+00
    0.59963661922966815521E+00
    0.57546952055184474872E+00
    0.59305420096446070932E+00
    0.53636907023677049544E+00
    0.49015929497334220777E+00
    0.43440920780803649048E+00
    0.46186270110128135880E+00
    0.39726172720983571329E+00
    0.41324810712229931298E+00
    0.44031498041031247315E+00
    0.42257539533684140842E+00
    0.43848889516175043601E+00
    0.43095516151243412617E+00
    0.40616731997103755480E+00
    0.42333365177177029182E+00
    0.36970452011955401428E+00
    0.34203362150585714385E+00
    0.28538435298565534293E+00
    0.31684849423314176420E+00
    0.26089198494728210731E+00
    0.24766020980161679299E+00
    0.22291826884816515197E+00
    0.23421160328596979383E+00
    0.21926875633906789398E+00
    0.21893845350281121442E+00
    0.22782465058100459521E+00
    0.22393908560877417990E+00
    0.22192636309218100044E+00
    0.22483520790317637617E+00
    0.22502111149410652935E+00
    0.22594627121581112306E+00
    0.23031628984414462269E+00
    0.22332701014593386857E+00
    0.21272013003900605566E+00
    0.21350393200771231039E+00
    0.21261874485087692288E+00
    0.20778745885871482968E+00
    0.19603396519720706070E+00
    0.19731920540153419230E+00
    0.27642530776974705287E+00
    0.28310266507523351720E+00
    0.28990848756181397672E+00
    0.28276129249742582017E+00
    0.27692753867191477468E+00
    0.27557046170325316670E+00
    0.27264194923101114920E+00
    0.27903262576377541038E+00
    0.26004538435542112751E+00
    0.24939579448402754425E+00
    0.22154414797444477170E+00
    0.23622490315339977895E+00
    0.21747920860478378580E+00
    0.21173770007755157718E+00
    0.19209542290657999342E+00
    0.19859242975600130410E+00
    0.71572029145908278025E+00
    0.65790336955586103951E+00
    0.62296312147822796579E+00
    0.68367948263276967502E+00
    0.63697139182738615748E+00
    0.62854868274753838975E+00
    0.57464691342923612805E+00
    0.55420211380594219808E+00
    0.56535812584629163702E+00
    0.61460643034699280474E+00
    0.41971875528797286670E+00
    0.46608164205778057632E+00
    0.39493233144711936689E+00
    0.41211143325587135111E+00
    0.48964797117278080485E+00
    0.37680919170461035783E+00
    0.69335977444908680756E+00
    0.76384754836806789680E+00
    0.76967397082229649374E+00
    0.73001885957474121902E+00
    0.70807082291508327554E+00
    0.75644657497772649357E+00
    0.77483830625920213642E+00
    0.44008893362612444555E+00
    0.41193923427964945772E+00
    0.34832704453162460778E+00
    0.33180995739067653538E+00
    0.36545400527814986269E+00
    0.46196964332311007961E+00
    0.54258794377968833089E+00
    0.63362253636855847549E+00
    0.56316755067006984969E+00
    0.62639734662285972977E+00
    0.52817092566150791733E+00
    0.59197910003120857159E+00
    0.72006879518147293151E+00
    0.72246396567211945694E+00
    0.78432397072246662351E+00
    0.78706459330667244423E+00
    0.72675308524797188614E+00
    0.45403371152842847414E+00
    0.41450553728301570144E+00
    0.36747699491230206847E+00
    0.40904536689817205808E+00
    0.38483218568236648993E+00
    0.36207259717747725114E+00
    0.54198181938667555624E+00
    0.40900808599666060861E+00
    0.44498761518538598736E+00
    0.48797691904543405439E+00
    0.51602398008798278095E+00
    0.37769858727425370537E+00
    0.43828352715990126498E+00
    0.27557326668573711714E+00
    0.30524684636115029246E+00
    0.25589565671549002746E+00
    0.33574380071743470388E+00
    0.35267243495790234764E+00
    0.24215599099088028212E+00
    0.26153648040501947802E+00
    0.39827350537941719200E+00
    0.46370230628571196263E+00
    0.37293030226514095604E+00
    0.51631307629925238256E+00
    0.48044052350746124791E+00
    0.35395620449494225035E+00
    0.39777349643657600176E+00
    0.57752776813348238871E+00
    0.61577037299471282239E+00
    0.52605685761196641081E+00
    0.63673194041924241482E+00
    0.65386212292036371974E+00
    0.56537476435817513032E+00
    0.52917904351371558569E+00
    0.23736714675532616381E+00
    0.22762528492914888001E+00
    0.21362564167614972455E+00
    0.27870991821197171889E+00
    0.26993111137907993546E+00
    0.20980475256886926827E+00
    0.21206444394520962415E+00
    0.65212792829573995590E+00
    0.71288747430372922942E+00
    0.73916794430749854783E+00
    0.67628492927330763340E+00
    0.75835167237098122239E+00
    0.67821664191633068697E+00
    0.58676792278075651232E+00
    0.63590190285493153333E+00
    0.64907833076097731784E+00
    0.58406152836302760445E+00
    0.60480727880189177892E+00
    0.50744272519121580434E+00
    0.55985038766459394033E+00
    0.54394808784228476650E+00
    0.53464554138525566263E+00
    0.50582165741513629431E+00
    0.32094325107104243466E+00
    0.35039346370911106376E+00
    0.32650702458547747886E+00
    0.32742700916803246791E+00
    0.35051731842987671195E+00
    0.57884301100999357992E+00
    0.64752223811379461260E+00
    0.58831520153726757361E+00
    0.61113618505628797273E+00
    0.64708109929553170314E+00
    0.44502394078749824002E+00
    0.46363435717831291694E+00
    0.46006488408531792667E+00
    0.43588446917923634460E+00
    0.43021653380199925687E+00
    0.66298508995629124030E+00
    0.60485361573244289524E+00
    0.64878687861498518519E+00
    0.58803209868501649105E+00
    0.60862675028297541502E+00
    0.42682181549573927626E+00
    0.46360907132706175027E+00
    0.41656846669237201919E+00
    0.45149642362528286110E+00
    0.46332763389350162253E+00
    0.71600851425721800947E+00
    0.67440871608077002097E+00
    0.72367582399568342044E+00
    0.69973493619108506625E+00
    0.75342106058703384175E+00
    0.31530214968020220390E+00
    0.34684988068856603682E+00
    0.31180894321416552373E+00
    0.33327517896547309562E+00
    0.34512164286765911747E+00
    0.25510328573191604074E+00
    0.27204057780020851620E+00
    0.27988425019232043844E+00
    0.24983474719758000382E+00
    0.28688699426059244280E+00
    0.79161651882623706999E+00
    0.73775535117639745586E+00
    0.76884736785695240169E+00
    0.71152380688127581099E+00
    0.73353066161500857234E+00
    0.48549574644466397810E+00
    0.46833442424173238328E+00
    0.54284276743825388145E+00
    0.52271658590321268267E+00
    0.56442100066313183326E+00
    0.61988719289632920884E+00
    0.57321461089471370531E+00
    0.56080748797303514586E+00
    0.61200510117644402186E+00
    0.78978331897028930531E+00
    0.79426350511603371896E+00
    0.78023608448222914191E+00
    0.49469957246900764236E+00
    0.39453847576266187769E+00
    0.46409928284480733707E+00
    0.23868470733079247270E+00
    0.27788460091302824573E+00
    0.33261468659912196699E+00
    0.32998941654601704476E+00
    0.32452920149403979844E+00
    0.36504558431619960057E+00
    0.36101021851064318824E+00
    0.42749462209680227920E+00
    0.45133164025881272741E+00
    0.52134328540888585923E+00
    0.50241596579634273390E+00
    0.56525545295038681637E+00
    0.68526938788628610766E+00
    0.63177779318895899152E+00
    0.72663208278520130534E+00
    0.68520422796225721740E+00
    0.48369512837475125977E+00
    0.38693100107922068220E+00
    0.38600824463087340943E+00
    0.67815915789932756930E+00
    0.63135285835971233226E+00
    0.32003615183097122721E+00
    0.28185176564016789502E+00
    0.23741028264044047869E+00
    0.45173094759166865231E+00
    0.38135513510840973739E+00
    0.34051128753944381877E+00
    0.54603416211389432799E+00
    0.56365815994821444335E+00
    0.41400833122378288831E+00
    0.61920294315558022102E+00
    0.54568233508790264796E+00
    0.51826020109509274292E+00
    0.37962865799155037783E+00
    0.39628336254384094461E+00
    0.26937413003039584192E+00
    0.67021970017647058970E+00
    0.64283158207060364653E+00
    0.57508637966167952538E+00
    0.28771425702429453963E+00
    0.28618958024747387370E+00
    0.21761490352194828857E+00
    0.26700575411559046568E+00
    0.24313747150411677000E+00
    0.20881072037442482969E+00
    0.61249039816881511999E+00
    0.73285918416092310501E+00
    0.69444422444251330262E+00
    0.67413811852477867337E+00
    0.43606759059002764278E+00
    0.59863937355386276362E+00
    0.54042965481195515132E+00
    0.50871613690177341915E+00
    0.34502762691922544969E+00
    0.51830767641355224296E+00
    0.47111622449108198074E+00
    0.37148643973519640538E+00
    0.69740294212429621012E+00
    0.73925059717279817395E+00
    0.77670660291965376576E+00
    0.59954908521173000402E+00
    0.56797330003888024663E+00
    0.33723700250634058850E+00
    0.37071113533449517874E+00
    0.23321959740853170917E+00
    0.24783443211407263362E+00
    0.51241487020971265842E+00
    0.48841928687894126115E+00
    0.19716277417745065037E+00
    0.20011297722315957159E+00
    0.53741000249105952413E+00
    0.37970968208465288862E+00
    0.37838046267209102247E+00
    0.68791866164942039319E+00
    0.31101160474446987170E+00
    0.50985539920853295559E+00
    0.78168839711054238784E+00
    0.30246347978662213585E+00
    0.67887725009944921428E+00
    0.49621033772533285067E+00
    0.58846827506491028448E+00
    0.43672183849533052769E+00
    0.58607917135668130548E+00
    0.32209082787538162451E+00
    0.34856053547048904129E+00
    0.47014344102652860791E+00
    0.57067898045998843859E+00
    0.63799563783755175450E+00
    0.41885834257047377394E+00
    0.64273132208893590800E+00
    0.57464309402601143617E+00
    0.80240657173150564674E+00
    0.36123954176726091880E+00
    0.27586007693019876097E+00
    0.23115707631440057801E+00
    0.35850053393154085457E+00
    0.32023956263385078280E+00
    0.20821234525723728015E+00
    0.20407691226606172741E+00
    0.19313701176616060451E+00
    0.18833792375023022947E+00
    0.32785752352369235130E+00
    0.38276348854770803065E+00
    0.46605008613423515307E+00
    0.53105639245784330704E+00
    0.53669222159989260490E+00
    0.49775149577301425197E+00
    0.42770446485269342229E+00
    0.35464232997660710689E+00
    0.36863330074669065084E+00
    0.35899014010549418208E+00
    0.33048923759213161278E+00
    0.28997201485654272579E+00
    0.25002037661333065266E+00
    0.23364719466308586648E+00
    0.20978218551756938615E+00
    0.20833966383973734349E+00
    0.20969673046874851008E+00
    0.20781890862183571844E+00
    0.20911842274004394104E+00
    0.20537349960994985554E+00
    0.20188420594261474728E+00
    0.24282872670524674463E+00
    0.24177365010744311657E+00
    0.23936373362366117346E+00
    0.23252844773656369814E+00
    0.22305301567606494739E+00
    0.20903667263232597606E+00
    0.20347292176893796989E+00
