# vtk DataFile Version 3.0
LAPLACIEN  2D
ASCII
DATASET UNSTRUCTURED_GRID
 POINTS        1516  float
  0.50009042000000004       0.49685350000000000        0.0000000000000000     
  0.29280878999999999       0.29407436999999997        0.0000000000000000     
  0.70955009000000002       0.70981006000000002        0.0000000000000000     
  0.71064956000000001       0.28967123000000000        0.0000000000000000     
  0.29473250000000001       0.70698041000000000        0.0000000000000000     
  0.49601276000000000       0.22409197000000000        0.0000000000000000     
  0.77973824999999997       0.50582700000000003        0.0000000000000000     
  0.50014395000000000       0.77701156000000005        0.0000000000000000     
  0.21266830000000000       0.50501266000000000        0.0000000000000000     
  0.16932810000000001       0.17543417000000000        0.0000000000000000     
  0.83168655999999996       0.82924503999999999        0.0000000000000000     
  0.82924503999999999       0.16831344000000001        0.0000000000000000     
  0.17075496000000001       0.83168655999999996        0.0000000000000000     
  0.43578920999999998       0.35833240000000000        0.0000000000000000     
  0.63948273000000000       0.56478775000000003        0.0000000000000000     
  0.35985096999999999       0.57093028000000001        0.0000000000000000     
  0.64300122000000004       0.84590626000000002        0.0000000000000000     
  0.36015138000000002       0.15358537999999999        0.0000000000000000     
  0.15671948999999999       0.35773458000000002        0.0000000000000000     
  0.84537978000000003       0.35577354999999999        0.0000000000000000     
  0.84542673999999995       0.64164620999999999        0.0000000000000000     
  0.64055245000000005       0.15487635000000000        0.0000000000000000     
  0.15446998000000001       0.64131327000000005        0.0000000000000000     
  0.35842743999999999       0.84538767000000004        0.0000000000000000     
  0.58036399000000005       0.36898788999999999        0.0000000000000000     
  0.52327071999999997       0.64341464999999998        0.0000000000000000     
  0.31984948000000002       0.41684040999999999        0.0000000000000000     
  0.69367761999999999       0.41687254000000001        0.0000000000000000     
  0.41047932999999998       0.70473459000000005        0.0000000000000000     
  0.59195732000000001       0.71927012999999995        0.0000000000000000     
  0.53714998999999997       0.89042226999999996        0.0000000000000000     
  0.46664006000000002       0.10974356000000000        0.0000000000000000     
  0.11153861000000000       0.46621057999999999        0.0000000000000000     
  0.89063848000000001       0.47218395000000002        0.0000000000000000     
  0.60005439999999999       0.26940141000000001        0.0000000000000000     
  0.73651323999999996       0.88555899999999999        0.0000000000000000     
  0.10609679000000000       0.25238258000000002        0.0000000000000000     
  0.26338917000000001       0.11470150000000000        0.0000000000000000     
  0.88529849999999999       0.26338917000000001        0.0000000000000000     
  0.88841183999999995       0.74176089000000001        0.0000000000000000     
  0.74176089000000001       0.11158816000000001        0.0000000000000000     
  0.11302384000000000       0.73767143999999996        0.0000000000000000     
  0.25846910000000001       0.88837984999999997        0.0000000000000000     
  0.39276481000000002       0.26026133000000001        0.0000000000000000     
  0.74379393000000005       0.60539953999999996        0.0000000000000000     
  0.25867135000000002       0.59958257000000004        0.0000000000000000     
  0.60022043000000003       0.47483159000000003        0.0000000000000000     
  0.40146807000000001       0.47172984000000001        0.0000000000000000     
   9.3979599999999996E-002   9.1864650000000006E-002   0.0000000000000000     
  0.90646658000000002       0.90547398000000001        0.0000000000000000     
  0.90547398000000001        9.3533420000000006E-002   0.0000000000000000     
   9.4526020000000002E-002  0.90646658000000002        0.0000000000000000     
  0.90603352000000004       0.55945769999999995        0.0000000000000000     
  0.55945769999999995        9.3966480000000005E-002   0.0000000000000000     
   9.3966480000000005E-002  0.55945769999999995        0.0000000000000000     
  0.43965862000000000       0.91008893999999996        0.0000000000000000     
  0.73936985000000000       0.79939687999999998        0.0000000000000000     
  0.25808609999999998       0.20225058000000001        0.0000000000000000     
  0.79950997999999995       0.26050676000000000        0.0000000000000000     
  0.20903700000000000       0.74602950000000001        0.0000000000000000     
  0.51019912999999995       0.30785683000000003        0.0000000000000000     
  0.19709441000000000       0.27813728999999998        0.0000000000000000     
  0.79397943000000004       0.71362444000000003        0.0000000000000000     
  0.72077237999999999       0.20857416000000001        0.0000000000000000     
  0.28232308000000000       0.79784562999999997        0.0000000000000000     
  0.45002842999999998       0.58041003000000002        0.0000000000000000     
  0.24206887999999999       0.36539011999999998        0.0000000000000000     
  0.50240527000000001       0.40874115999999999        0.0000000000000000     
  0.69787266000000003       0.49744363000000003        0.0000000000000000     
  0.63652279000000000       0.65338169999999995        0.0000000000000000     
  0.30678966000000002       0.50330836999999995        0.0000000000000000     
  0.55804538000000004       0.56013272999999997        0.0000000000000000     
  0.78473908000000003       0.41906125999999999        0.0000000000000000     
  0.41681289999999999       0.78327389999999997        0.0000000000000000     
  0.81702944000000000       0.91636123000000003        0.0000000000000000     
   8.0601590000000001E-002  0.18517997000000000        0.0000000000000000     
  0.17956701000000000        7.8926839999999998E-002   0.0000000000000000     
  0.91636123000000003       0.18297056000000000        0.0000000000000000     
  0.92078210999999999       0.81543562000000003        0.0000000000000000     
  0.81543562000000003        7.9217889999999999E-002   0.0000000000000000     
   8.3638770000000001E-002  0.81702944000000000        0.0000000000000000     
  0.18456438000000000       0.92078210999999999        0.0000000000000000     
  0.34185365000000001       0.64907157000000004        0.0000000000000000     
  0.60712305000000000       0.92404640999999998        0.0000000000000000     
   7.9494029999999993E-002  0.39634058999999999        0.0000000000000000     
  0.39040704999999998        7.7871659999999995E-002   0.0000000000000000     
  0.92574208999999996       0.38712774999999999        0.0000000000000000     
  0.35207945000000002       0.34021172999999999        0.0000000000000000     
  0.92316257999999995       0.65621616999999999        0.0000000000000000     
  0.65621616999999999        7.6837420000000003E-002   0.0000000000000000     
   7.7592490000000000E-002  0.65548313999999996        0.0000000000000000     
  0.34378383000000001       0.92316257999999995        0.0000000000000000     
  0.65763702000000002       0.76498270000000002        0.0000000000000000     
  0.57502123000000005       0.79886235000000005        0.0000000000000000     
  0.82488251999999995       0.56973017999999997        0.0000000000000000     
  0.56350595999999997       0.17262927000000000        0.0000000000000000     
  0.17499060000000000       0.56978097999999999        0.0000000000000000     
  0.76449263000000001       0.34243157000000002        0.0000000000000000     
  0.19019549999999999       0.42526652999999998        0.0000000000000000     
  0.42831627000000000       0.18065569000000001        0.0000000000000000     
  0.65841015000000003       0.34563083000000000        0.0000000000000000     
  0.48887922000000000       0.70804370999999999        0.0000000000000000     
  0.34753611000000001       0.76148972000000004        0.0000000000000000     
  0.21891395999999999       0.66679798000000001        0.0000000000000000     
  0.33297661000000001       0.21824681000000001        0.0000000000000000     
  0.67975847000000000       0.93479042000000001        0.0000000000000000     
   6.3727629999999993E-002  0.32131759999999998        0.0000000000000000     
  0.32762195000000000        6.8773239999999999E-002   0.0000000000000000     
  0.93136578000000003       0.32807139000000002        0.0000000000000000     
  0.64698155999999996       0.21061173999999999        0.0000000000000000     
  0.45602714999999999       0.83776974000000004        0.0000000000000000     
  0.39129820999999998       0.41222850999999999        0.0000000000000000     
  0.25746412000000002       0.44439139999999999        0.0000000000000000     
  0.44813239999999999       0.63793893000000002        0.0000000000000000     
  0.46747592999999998       0.27117379000000003        0.0000000000000000     
  0.58952952999999997       0.62779850000000004        0.0000000000000000     
  0.76356464999999996       0.66166265999999996        0.0000000000000000     
  0.63507016000000005       0.42228151000000003        0.0000000000000000     
  0.94023380000000001       0.50617835000000000        0.0000000000000000     
  0.50565035999999997        5.9802580000000001E-002   0.0000000000000000     
  0.49453327000000002       0.93969469000000005        0.0000000000000000     
   5.9973539999999999E-002  0.50560945999999996        0.0000000000000000     
  0.40175032999999999       0.60553997999999998        0.0000000000000000     
  0.83933382999999995       0.41297020000000001        0.0000000000000000     
  0.44672879999999998       0.43017311000000003        0.0000000000000000     
[...]
 CELL_DATA        1439
 SCALARS U float
 LOOKUP_TABLE default
    0.32530277035816926052E-03
    0.51472906324396211844E-02
    0.13322641171437387157E-04
    0.21883075991366560716E-05
    0.56556470429240776783E-03
    0.71539822943001720422E-03
    0.41400439744435904230E-03
    0.16312045464179538833E-02
    0.10698228302398670939E-02
    0.23775751525089232861E-02
    0.36976922542188567222E-02
    0.84846625837079140547E-02
    0.58235384224408215381E-02
    0.11518711279624440844E-01
    0.16183663269651621386E-01
    0.31892720737622601290E-01
    0.22565937262982393996E-01
    0.36010220614554860896E-01
    0.48276833457808074335E-01
    0.70381379429374044121E-01
    0.13816932309682622426E+00
    0.10104289421855945641E+00
    0.20349138944344222213E+00
    0.16902944743281583806E+00
    0.21996991670725407619E+00
    0.22727991088508053830E+00
    0.25494211993111765002E+00
    0.24099296238964867944E+00
    0.24671043297185246690E+00
    0.20678441507929409826E+00
    0.15283071437530487691E+00
    0.17410068014837004613E+00
    0.10926644349639300091E+00
    0.13328376018358967237E+00
    0.85846058548765591389E-01
    0.59532167321940318572E-01
    0.28650349185921859807E-01
    0.40479948106046798051E-01
    0.21193031854295916322E-01
    0.14660436039992737201E-01
    0.85228680259782883810E-02
    0.10300731643534878634E-01
    0.63528072239899101986E-02
    0.74666666523294702301E-02
    0.79675177011129753174E-02
    0.58269234143514085644E-02
    0.12740105115744450315E-01
    0.99456626267772300226E-02
    0.14785823543137181085E-01
    0.16311111832697056806E-01
    0.22288635477671132901E-01
    0.18955910495374667796E-01
    0.23356310312536418539E-01
    0.23072000292439290292E-01
    0.29065932239372864465E-01
    0.23598427418639992409E-01
    0.24740569435773247797E-01
    0.24087117348908396869E-01
    0.21468451855645019621E-01
    0.18515787796333654097E-01
    0.19594808079454868049E-01
    0.13822955858734504997E-01
    0.16568203287787131028E-01
    0.11189681850499816340E-01
    0.81793003472461420222E-02
    0.43681353195424554164E-02
    0.59569311429288696394E-02
    0.32874218027324343498E-02
    0.22063800103276688148E-02
    0.97472004528866061732E-03
    0.14109275338044088496E-02
    0.52375574706028200575E-03
    0.72284336714134264125E-03
    0.37441102953805771320E-03
    0.23933488673272290291E-03
    0.93525032259281803732E-04
    0.14595639638341638866E-03
    0.65348832809007911370E-04
    0.43332752087568619066E-04
    0.23139428372916379442E-04
    0.28939189124579937820E-04
    0.16905588179477516492E-04
    0.19145089272629159057E-04
    0.20106940545769607932E-04
    0.14948106662201762296E-04
    0.31905518625949654205E-04
    0.25007665575576325066E-04
    0.37134424569065032046E-04
    0.41556947213434471382E-04
    0.60199087287051925986E-04
    0.49730600462685812645E-04
    0.65009211411710336303E-04
    0.66410286918089001429E-04
    0.92604450481817359060E-04
    0.70574708640079320812E-04
    0.81339554725504858339E-04
    0.85298579748397410040E-04
    0.88545199397990645646E-04
    0.11072720226353979160E-03
    0.97742511906707534594E-04
    0.11676188488719676324E-03
    0.11681455860284479002E-03
    0.10909644964924730692E-03
    0.94469642339513006839E-04
    0.74882693566625876274E-04
    0.83478525828571144675E-04
    0.65920638102639065909E-04
    0.51705970789970574330E-04
    0.34678491405767771145E-04
    0.40388440855400931952E-04
    0.25507032472005653054E-04
    0.30284105962908149448E-04
    0.20267774747899834577E-04
    0.14641545008357038915E-04
    0.83469759009335752690E-05
    0.10698691658822976968E-04
    0.66287030988562255506E-05
    0.49086298740905127245E-05
    0.33407317030934247310E-05
    0.37084514059323265764E-05
    0.25467252522281621119E-05
    0.46072209227898815957E-03
    0.47400886571942783213E-03
    0.36050477607169702145E-03
    0.71646412173761628815E-03
    0.57766004744769260722E-03
    0.80182191262570014223E-03
    0.82639633952515676243E-03
    0.97527523719873488589E-03
    0.87660579505323638159E-03
    0.10105540614951179050E-02
    0.97016645536774563478E-03
    0.10966124302078444561E-02
    0.96248004370023346882E-03
    0.96110698459639669258E-03
    0.94342333299467175025E-03
    0.89187614392897810768E-03
    0.81444346753563692277E-03
    0.83346112480020702849E-03
    0.68921478410086231461E-03
    0.76644753349475918183E-03
    0.58708436999910479197E-03
    0.45548472619528254223E-03
    0.28314419736796120602E-03
    0.35680889008736710929E-03
    0.22595511879382537690E-03
    0.16036478494689857498E-03
    0.83442273048414382385E-04
    0.11063306326020726277E-03
    0.51019815614539740321E-04
    0.66006606788090888016E-04
    0.38908154037372484906E-04
    0.26648588395661346016E-04
    0.12389541604176794690E-04
    0.17665670204363463560E-04
    0.91284003998937197021E-05
    0.62318752640770415125E-05
    0.36289148538374734226E-05
    0.43548534414463859369E-05
    0.26875190148875819401E-05
    0.34647807005960223892E+00
    0.78687964315699898687E+00
    0.34960738278108027810E+00
    0.53178201114292389384E+00
    0.48924280502258432612E+00
    0.72307988000551515206E+00
    0.23004287593268415990E+00
    0.12420135459170966730E+00
    0.90453895764856739881E-01
    0.89612072414662985453E-01
    0.14067082362891025760E+00
    0.17882525828903106380E+00
    0.17623598954523554683E-01
    0.57083965862876322878E-02
    0.51678467105369385592E-02
    0.14651480543441824239E-01
    0.80255838931693503080E-02
    0.10383057578500118692E-01
    0.28253034061023480916E+01
    0.14454072489140434854E+01
    0.20596520966240774442E+01
    0.12436498963072113444E+01
    0.15108050708226894443E+01
    0.22032732497974176766E+01
    0.39819072551673618740E-02
    0.37291054477922545851E-02
    0.16281035413918804305E-02
    0.22447506970766058568E-02
    0.21852597951824955305E-02
    0.43219105577702882776E-02
    0.20606051739374549037E+01
    0.17074969888757123293E+01
    0.32480032252557871075E+01
    0.16584144954404058669E+01
    0.24238051450546373999E+01
    0.26491181898339224432E+01
    0.16806253376598272453E+01
    0.14551316714743858793E+00
    0.12502782756903849104E+00
    0.28869536017483488077E+00
    0.19288061058346978038E+00
    0.11385360405238677262E+00
    0.21639627392163529596E+00
    0.11684671282675104798E+00
    0.50108735064357118327E-02
    0.42220959796257567440E-02
    0.28385468951096217913E-02
    0.51558806031594527769E-02
    0.32295724831220944118E-02
    0.22522378971958512822E-02
    0.82102736913990080614E-02
    0.15691583375208359441E-01
    0.11238873329610925278E-01
    0.96000890358378040967E-02
    0.19691242168015855862E-01
    0.15137296496260794348E-01
    0.93303846480237047356E-02
    0.10213296979967593364E-01
    0.14648891060635157307E-01
    0.58774346310532929114E-02
    0.15162963977090885420E-01
    0.69110893691166370295E-02
    0.84741369659835884265E-02
    0.81339002456235181670E-03
    0.56643407817355074033E-03
    0.29390272445373064004E-03
    0.80499204544705652530E-03
    0.51582331037315751112E-03
    0.32212646957819468648E-03
    0.38805050581328028470E-03
    0.25852130394162925464E+00
    0.19638982612106062331E+00
    0.10616670742695374918E+00
    0.27085622941021508803E+00
    0.17058437204096860151E+00
    0.11280942845876185121E+00
    0.13873760336184959296E+00
    0.11405810404301251174E-03
    0.12212573189897605024E-03
    0.51805801315313829310E-04
    0.14860996753508158011E-03
    0.71132905284406990542E-04
    0.49238306879735306001E-04
    0.79471333073539437248E-04
    0.11237936207658454357E+01
    0.19890461932268548306E+01
    0.17133509015293162392E+01
    0.96093999182421352412E+00
    0.14456009047421718439E+01
    0.10623437382077494107E+01
    0.34745024341739150220E+00
    0.14557153033303238399E+00
    0.30287735589025699401E+00
    0.22185621736209087951E+00
    0.14696721108941968037E+00
    0.20001381589263689253E+00
    0.52686055325543865169E-01
    0.32806397031265019382E-01
    0.75309726479713762215E-01
    0.75760131435485267293E-01
    0.45875171657041594053E-01
    0.38917596624730474431E-01
    0.89550266371749779725E-03
    0.10637461476696204177E-02
    0.69397820755345948802E-03
    0.14990543546234665409E-02
    0.13029663273285288852E-02
    0.77635595994073806729E-03
    0.12893531241160319234E+00
    0.25512769083216962906E+00
    0.33450657565962249596E+00
    0.12702471990881167296E+00
    0.17309641998708424904E+00
    0.31510737448875231204E+00
    0.20636605164341204066E+00
    0.10506644958422330094E-01
    0.75912570024759540299E-02
    0.17395059348971689261E-01
    0.65234969599893555259E-02
    0.14535706652935447697E-01
    0.16953904728418209280E+00
    0.19934216785243102921E+00
    0.14409767180279539622E+00
    0.25039397164168636367E+00
    0.25830443951896026045E+00
    0.13315762258245300576E+00
    0.62420040452305109585E-02
    0.17078282340965391523E-01
    0.81643269287701627362E-02
    0.10380948283458223125E-01
    0.63565436838507191966E-02
    0.13911992711439679499E-01
    0.19384041051828519997E+01
    0.11038619331560473036E+01
    0.10208099357499174076E+01
    0.12228912018734514611E+01
    0.14607419645355190774E+01
    0.10211817988383535827E+01
    0.16619676668782270568E+01
    0.68190383091805016526E-03
    0.20023265356396511422E-02
    0.80382502115957017198E-03
    0.12183480636704007230E-02
    0.66110711967322106485E-03
    0.15078351196900249397E-02
    0.33244432900583612868E-03
    0.32477797147015220400E-03
    0.55678546382653400053E-03
    0.52451891146730340171E-03
    0.69649148338483870407E-03
    0.27758356366346429410E-03
    0.46316868702306095429E+01
    0.28351016322482576193E+01
    0.38041658100638708895E+01
    0.43548828398626451275E+01
    0.30699425279689416257E+01
    0.34712361588622213660E+01
    0.30175750068558687689E-01
    0.76098103876932138290E-01
    0.83104384703945988200E-01
    0.40936331715034815493E-01
    0.48969900530916835035E-01
    0.14837884214909632941E+00
    0.13987135206586559510E+00
    0.11563882526964765207E+00
    0.10765622778034060480E+00
    0.20111410843033361573E+00
    0.18402289144530462051E+00
    0.14784348321719988917E+01
    0.79007789022541019541E+00
    0.13185395349702657697E+01
    0.11358077269030817380E+01
    0.96885449951340574248E+00
    0.16217436983418920260E+01
    0.93519217796827258660E+00
    0.85040091175846623667E-02
    0.77284646920121706504E-02
    0.69036710442896536549E-02
    0.14614579200749943516E-01
    0.13494947358768950504E-01
    0.14429452496450598242E-01
    0.12622672596275325702E-01
    0.93942290253277247608E-02
    0.18197945975932446061E-01
    0.85558942438700401334E-02
    0.24890999101074504909E-03
    0.24295708512164890421E-03
    0.67617750721779773873E-03
    0.69027538543908056878E-03
    0.41217505430607014223E-03
    0.42004248259592066482E-03
    0.33664783324315566970E+00
    0.77803055636159634822E+00
    0.28118030216292161372E+00
    0.39255918793671934486E+00
    0.52228883464514530566E+00
    0.59295720698841991592E+00
    0.31871617295131726699E+00
    0.14315814763131546293E-02
    0.35427503518061041060E-02
    0.15609399803009197695E-02
    0.41858720126483721369E-02
    0.21130957900581362648E-02
    0.44101431264955935629E-02
    0.27328718564091736103E-02
    0.26321940291465124873E-01
    0.56584625227218347809E-01
    0.32157252691877531714E-01
    0.36342617747453904997E-01
    0.54446215751183753284E-01
    0.67954065053745543734E-01
    0.48905313341301184238E+01
    0.52971970155482974718E+01
    0.45240926483016616899E+01
    0.42316670431962508658E+01
    0.50204306514074898971E+01
    0.44858293952994960918E+01
    0.46594511804201745875E+01
    0.48448966219238670181E-03
    0.15932535597278118297E-03
    0.39660532629478287498E-03
    0.37773437620491619009E-03
    0.24156251993870270374E-03
    0.44619531678903470804E-03
    0.22716135064964601336E-03
    0.68145380030441978988E-02
    0.22026502351349332327E-02
    0.50599971585744800417E-02
    0.22593143871459404198E-02
    0.33197585659599684708E-02
    0.37465871704568769196E-02
    0.59928014083165306175E-02
    0.48096288813604219647E-01
    0.16845118706010422938E-01
    0.22588361437241542828E-01
    0.48694455780048766236E-01
    0.17684072994212509528E-01
    0.33964521579045066357E-01
    0.28342534522254023838E-01
    0.14114738327807668794E+00
    0.53880118069886448473E-01
    0.13535866957145617495E+00
    0.10269830700714471794E+00
    0.82801609830815914304E-01
    0.14064422325352010645E+00
    0.68668354410776399899E-01
    0.12180147887081342953E-02
    0.79333636310926461573E-03
    0.20265712672555770586E-02
    0.10210777020815591312E-02
    0.87329562288677336276E-03
    0.15446673082573679839E-02
    0.80488178297876918944E-03
    0.17680802347459093418E-02
    0.33129028222323919639E+00
    0.18788944488164904811E+00
    0.47780410811737417109E+00
    0.22026043110708171113E+00
    0.24261397508926335620E+00
    0.32962702170803115376E+00
    0.21138249409798798295E+00
    0.43723215361089240449E+00
    0.24085854095692190682E-03
    0.82349182544281699725E-04
    0.14921003546903831316E-03
    0.10358293423474862894E-03
    0.17361352095978120668E-03
    0.10243068344782281097E-03
    0.20102568429546108231E-03
    0.10870613956718909010E-03
    0.48174638700902811471E-04
    0.13568095055885911202E-03
    0.56180678455378446818E-04
    0.76021009989011214679E-04
    0.91486762707846422220E-04
    0.59151573928281571445E-04
    0.13753122672882845583E-03
    0.57067166856268869424E+00
    0.78462316900167194955E+00
    0.64528876521005051892E+00
    0.93540834775622694330E+00
    0.55972498871073184112E+00
    0.99331771905896459884E+00
    0.33084307224401247882E-01
    0.91213244406384313967E-01
    0.43536829472608257197E-01
    0.39690591942915590118E-01
    0.75225143493881596601E-01
    0.64059092709600001792E-01
    0.11587420522629251693E-01
    0.77303151382250839124E-02
    0.11423255798674869510E-01
    0.52398803725194117303E-02
    0.78245852947927754806E-02
    0.58358959633156709534E-02
    0.11699071388047602854E-01
    0.13218397431786135243E+01
    0.10246729582872295961E+01
    0.71814583053484426500E+00
    0.74496464122544048259E+00
    0.96141937953797318439E+00
    0.13675070200203098825E+01
    0.64477498755775675132E+00
    0.36493002876948443802E+00
    0.47464060747043990141E+00
    0.29033745541909722343E+00
    0.21106804451427896296E+00
    0.18741730805855602582E+00
    0.39610983253828585537E+00
    0.23679464234898153774E+00
    0.26973370440852045826E+00
    0.10875350928762797346E-02
    0.14259584794111379146E-02
    0.18250760075489850034E-02
    0.22608523628865357519E-02
    0.23037149272155236536E-02
    0.11058147364778878920E-02
    0.13472814009129166664E-02
    0.46406842949824826227E-04
    0.61019843140875740586E-04
    0.83234895200785742782E-04
    0.10232760831484264232E-03
    0.11363475713787677128E-03
    0.47006881950627753524E-04
    0.58338462194950711065E-04
    0.17376861166959543803E-01
    0.23292735418406377429E-01
    0.29122391568797003497E-01
    0.38186467656155839712E-01
    0.40965045631203886312E-01
    0.17999294214856603746E-01
    0.20974601167835955906E-01
    0.77846696541947942987E-05
    0.11197785656540213284E-04
    0.12928799349975935969E-04
    0.18891954038136833996E-04
    0.17051886613996138477E-04
    0.92079065607881815665E-05
    0.84105321016320353032E-05
    0.13814734301954550294E-01
    0.73692710289190053660E-02
    0.88843305123349116531E-02
    0.95819274472764177919E-02
    0.18502407232065906650E-01
    0.14052770231607145807E-01
    0.20486562054808189065E-01
    0.39191263447343799298E+00
    0.42704493584472347223E+00
    0.59697457281101029558E+00
    0.38189964672218118524E+00
    0.53882814922012534087E+00
    0.77353711938428670880E+00
    0.75804267038495354303E+00
    0.82701746262697046434E-03
    0.50640422224827101420E-03
    0.65861145526180397709E-03
    0.60261410756631318426E-03
    0.11696667011619509609E-02
    0.10342613498000284306E-02
    0.14172148368886093844E-02
    0.19055325065615277879E-03
    0.14074219280527631732E-03
    0.20101629026462146258E-03
    0.28010139169719946300E-03
    0.14642044652386429493E-03
    0.29098060694540190578E-03
    0.11743059059575202113E-02
    0.98242466333481933555E-03
    0.23198988886833386489E-02
    0.13648650819045270426E-02
    0.21064248227941981956E-02
    0.15654980189642427393E-02
    0.19677313365746330887E-02
    0.98761878635331059456E-03
    0.59365370591951502344E-01
    0.33503485919248836289E-01
    0.58241172564576865200E-01
    0.34785323904422571495E-01
    0.80033413289166480120E-01
    0.71198186750573752568E-01
    0.42405463568311763112E-01
    0.44015479948855476544E-01
    0.33491760630613304217E+00
    0.32032098406853731776E+00
    0.69975203901648397320E+00
    0.42779346505768944819E+00
    0.57662806561709178954E+00
    0.40711508481244268465E+00
    0.58391809201581523769E+00
    0.30729035570492713170E+00
    0.28235855272075633966E-03
    0.70984791131743557244E-03
    0.34277357534318432866E-03
    0.93310052000899709225E-03
    0.68188524207446834808E-03
    0.48178398257787811597E-03
    0.38599700101634999271E-03
    0.30622277361039307308E+01
    0.43321288870991114806E+01
    0.47239485181751144083E+01
    0.33190618988623725727E+01
    0.39292600090003269031E+01
    0.30403656725685426210E+01
    0.36287840382305267539E+01
    0.16248445589843122511E-01
    0.16661236124893275684E-01
    0.38456188324509657517E-01
    0.25967279806612730830E-01
    0.38772456887658790503E-01
    0.26348350684143786310E-01
    0.14544408256675619984E-01
    0.95443926799048534049E-02
    0.44902924279741187122E-02
    0.45582088038388967124E-02
    0.71586953377195993234E-02
    0.68272987878565880027E-02
    0.33834428244766340602E-02
    0.34381817812329205919E-02
    0.11585872220032134017E+01
    0.16261983930571353163E+01
    0.13258572276953277669E+01
    0.90313573914481581895E+00
    0.88377920619059269214E+00
    0.36345238139898249433E-03
    0.71394633327132505859E-03
    0.60415392308338909146E-03
    0.86739973319375346644E-03
    0.47685893240697425563E-03
    0.33340328401897307339E-03
    0.72455214549283455949E-01
    0.75982090803435833881E-01
    0.17912792238526589750E+00
    0.17308493363612342808E+00
    0.11669549740027067297E+00
    0.10976696638882821322E+00
    0.89883804144679127490E-01
    0.40651620250934120127E-01
    0.61502308901516360151E-01
    0.36235658945824145150E-01
    0.75361807507709127618E-01
    0.47455552545629428596E-01
    0.12271719043287216966E+01
    0.14171811913187495335E+01
    0.22108616152997218052E+01
    0.26953053606483514670E+01
    0.20307551192212995872E+01
    0.12869062484457733930E+01
    0.15877918856368975487E+01
    0.25372213635229834416E+00
    0.43786414090275377342E+00
    0.47405635334637274969E+00
    0.65378555371943114505E+00
    0.31291765457165648945E+00
    0.32479733979529112897E+00
    0.56880635739379736826E+00
    0.57111129252052340866E-01
    0.23215433318912979954E-01
    0.34272612270359159581E-01
    0.66959402739156861917E-01
    0.27591396337635215597E-01
    0.48082528764565805879E-01
    0.33983352777990194493E-01
    0.96847030713270929048E-01
    0.83764715359106206582E-01
    0.48602930496316899822E-01
    0.67644745508807946344E-01
    0.41358465752923956327E-01
    0.24778768357141955914E+00
    0.37988000996376319884E+00
    0.32666934372326056346E+00
    0.17493299405496881560E+00
    0.21170492246552319315E+00
    0.25315074439023976804E+00
    0.43313830596831992548E+00
    0.28344412971367438647E+00
    0.55900910287623095662E+00
    0.36774981815155061149E+00
    0.37493188648904957755E-02
    0.14158580390030385196E-02
    0.33708191757475473166E-02
    0.17627658012096434573E-02
    0.23473952113089095566E-02
    0.94017873735345743567E-04