# vtk DataFile Version 3.0
LAPLACIEN  2D
ASCII
DATASET UNSTRUCTURED_GRID
 POINTS         391  float
  0.50371505999999999       0.50367786999999997        0.0000000000000000     
  0.29013556000000001       0.29014535000000002        0.0000000000000000     
  0.70165584999999997       0.71206597999999999        0.0000000000000000     
  0.70304188999999995       0.30176619999999998        0.0000000000000000     
  0.30920671999999999       0.71149227999999998        0.0000000000000000     
  0.79044983999999996       0.49884783999999999        0.0000000000000000     
  0.49102621000000002       0.20968644000000000        0.0000000000000000     
  0.49912957000000002       0.77208717000000004        0.0000000000000000     
  0.21724072999999999       0.48989389000000000        0.0000000000000000     
  0.83255933999999998       0.83046598000000005        0.0000000000000000     
  0.16646774000000000       0.17015694000000001        0.0000000000000000     
  0.83054514999999995       0.16736480000000001        0.0000000000000000     
  0.16953130999999999       0.83265739000000005        0.0000000000000000     
  0.42166445000000002       0.36345201999999999        0.0000000000000000     
  0.64462200999999997       0.56347807999999999        0.0000000000000000     
  0.35324633999999999       0.56311191000000005        0.0000000000000000     
  0.65456411000000003       0.84856860999999995        0.0000000000000000     
  0.35141477999999998       0.15563974000000000        0.0000000000000000     
  0.15290967000000000       0.35206625000000003        0.0000000000000000     
  0.82942241000000005       0.34936866000000000        0.0000000000000000     
  0.84390527000000004       0.64441694999999999        0.0000000000000000     
  0.63699174999999997       0.14284276000000001        0.0000000000000000     
  0.15620682999999999       0.64648446999999998        0.0000000000000000     
  0.36426062999999997       0.85756310999999996        0.0000000000000000     
  0.63489340999999999       0.40519052000000000        0.0000000000000000     
  0.52518872999999999       0.65957078000000002        0.0000000000000000     
  0.32158959999999998       0.42298103999999997        0.0000000000000000     
  0.58861710000000000       0.31711036999999997        0.0000000000000000     
  0.42078418000000001       0.69497151999999995        0.0000000000000000     
  0.48608786999999998       0.89334152000000000        0.0000000000000000     
   9.7084320000000002E-002  0.50000000000000000        0.0000000000000000     
  0.90291568000000000       0.50000000000000000        0.0000000000000000     
  0.51392453000000005       0.10668648999999999        0.0000000000000000     
  0.59792566999999996       0.73122754000000001        0.0000000000000000     
  0.74510058999999995       0.41124730999999998        0.0000000000000000     
  0.73212551999999997       0.90191560000000004        0.0000000000000000     
   9.7784830000000003E-002  0.26957329000000002        0.0000000000000000     
  0.26711221000000002        9.8671499999999995E-002   0.0000000000000000     
  0.90191560000000004       0.26787448000000003        0.0000000000000000     
  0.90118569000000004       0.73039821000000005        0.0000000000000000     
  0.73122947000000005        9.8017859999999998E-002   0.0000000000000000     
   9.8084400000000002E-002  0.73212551999999997        0.0000000000000000     
  0.26957329000000002       0.90221516999999996        0.0000000000000000     
  0.39283522999999998       0.25360379000000000        0.0000000000000000     
  0.74480864000000002       0.60495284999999999        0.0000000000000000     
  0.25505132000000003       0.60593640999999998        0.0000000000000000     
  0.52159297999999998       0.40671636000000000        0.0000000000000000     
  0.40768852000000000       0.47699891000000000        0.0000000000000000     
   9.1467049999999994E-002   9.1876959999999994E-002   0.0000000000000000     
  0.90842484999999995       0.90819225000000003        0.0000000000000000     
  0.90820104999999995        9.1566729999999999E-002   0.0000000000000000     
   9.1807449999999999E-002  0.90843574000000005        0.0000000000000000     
  0.27098960000000000       0.20527094000000001        0.0000000000000000     
  0.73457293999999995       0.79835387000000002        0.0000000000000000     
  0.79817773000000003       0.25713470999999999        0.0000000000000000     
  0.20747797000000001       0.72863946000000002        0.0000000000000000     
  0.20175195000000001       0.27583914999999998        0.0000000000000000     
  0.79603889000000005       0.72159035000000005        0.0000000000000000     
  0.71761666000000002       0.19748431999999999        0.0000000000000000     
  0.28462607000000001       0.80251899999999998        0.0000000000000000     
  0.69134598999999997       0.49261972999999998        0.0000000000000000     
  0.44720578999999999       0.58582935999999997        0.0000000000000000     
  0.24242269999999999       0.37228174000000003        0.0000000000000000     
  0.38265623999999998       0.93072131999999996        0.0000000000000000     
  0.60971754000000000       0.91988369000000003        0.0000000000000000     
   7.9163609999999995E-002  0.60979116000000000        0.0000000000000000     
  0.92010649000000000       0.61081183999999999        0.0000000000000000     
  0.61954008999999999        7.1530830000000004E-002   0.0000000000000000     
  0.91882012999999996       0.38917363999999999        0.0000000000000000     
  0.39086346000000000        8.0652249999999995E-002   0.0000000000000000     
   7.9183480000000001E-002  0.38966213000000000        0.0000000000000000     
  0.59114111999999996       0.49294315000000000        0.0000000000000000     
  0.63337980999999999       0.64485914000000000        0.0000000000000000     
  0.50012352000000004       0.29676539000000002        0.0000000000000000     
  0.82552601000000003       0.92753492000000004        0.0000000000000000     
  0.92774772999999999       0.82498556999999995        0.0000000000000000     
   7.1970870000000006E-002  0.17510291000000000        0.0000000000000000     
  0.17422821999999999        7.2635640000000001E-002   0.0000000000000000     
  0.82510813000000005        7.2134840000000006E-002   0.0000000000000000     
  0.92754665000000003       0.17446275999999999        0.0000000000000000     
  0.17501022999999999       0.92789951999999998        0.0000000000000000     
   7.2464680000000004E-002  0.82554053000000005        0.0000000000000000     
  0.30731587999999999       0.50885354999999999        0.0000000000000000     
  0.59033407999999998       0.22171178999999999        0.0000000000000000     
  0.40109191999999999       0.78725542000000004        0.0000000000000000     
  0.35420917000000002       0.63754104000000000        0.0000000000000000     
  0.15983976999999999       0.56665573000000002        0.0000000000000000     
  0.84108459999999996       0.56757886999999996        0.0000000000000000     
  0.83902096000000004       0.43344338999999998        0.0000000000000000     
  0.43230028999999998       0.16004268999999999        0.0000000000000000     
  0.57536027999999995       0.83041363999999995        0.0000000000000000     
  0.15771898000000001       0.42747892999999998        0.0000000000000000     
  0.34021692999999997       0.34221559000000001        0.0000000000000000     
  0.56002271999999997       0.57501117999999996        0.0000000000000000     
  0.65344329000000001       0.78147597999999996        0.0000000000000000     
   0.0000000000000000        0.0000000000000000        0.0000000000000000     
   1.0000000000000000        0.0000000000000000        0.0000000000000000     
   1.0000000000000000        1.0000000000000000        0.0000000000000000     
   0.0000000000000000        1.0000000000000000        0.0000000000000000     
  0.11111111000000000        0.0000000000000000        0.0000000000000000     
  0.22222222000000000        0.0000000000000000        0.0000000000000000     
  0.33333332999999998        0.0000000000000000        0.0000000000000000     
  0.44444444000000000        0.0000000000000000        0.0000000000000000     
  0.55555555999999995        0.0000000000000000        0.0000000000000000     
  0.66666667000000002        0.0000000000000000        0.0000000000000000     
  0.77777777999999997        0.0000000000000000        0.0000000000000000     
  0.88888889000000004        0.0000000000000000        0.0000000000000000     
   1.0000000000000000       0.11111111000000000        0.0000000000000000     
   1.0000000000000000       0.22222222000000000        0.0000000000000000     
   1.0000000000000000       0.33333332999999998        0.0000000000000000     
   1.0000000000000000       0.44444444000000000        0.0000000000000000     
   1.0000000000000000       0.55555555999999995        0.0000000000000000     
   1.0000000000000000       0.66666667000000002        0.0000000000000000     
   1.0000000000000000       0.77777777999999997        0.0000000000000000     
   1.0000000000000000       0.88888889000000004        0.0000000000000000     
  0.88888889000000004        1.0000000000000000        0.0000000000000000     
  0.77777777999999997        1.0000000000000000        0.0000000000000000     
  0.66666667000000002        1.0000000000000000        0.0000000000000000     
  0.55555555999999995        1.0000000000000000        0.0000000000000000     
  0.44444444000000000        1.0000000000000000        0.0000000000000000     
  0.33333332999999998        1.0000000000000000        0.0000000000000000     
  0.22222222000000000        1.0000000000000000        0.0000000000000000     
  0.11111111000000000        1.0000000000000000        0.0000000000000000     
   0.0000000000000000       0.11111111000000000        0.0000000000000000     
   0.0000000000000000       0.22222222000000000        0.0000000000000000     
[...]
 CELL_DATA         354
 SCALARS U float
 LOOKUP_TABLE default
    0.17661584952785785302E-01
    0.25245559000929614774E-01
    0.16176464648611020569E-01
    0.16325863336757187594E-01
    0.22875030059518602910E-01
    0.24592986282346920857E-01
    0.29588194040058714979E-01
    0.25798309887154702302E-01
    0.10942730052738353086E+00
    0.19805711054179025998E+00
    0.23418849608355124525E+00
    0.22456625086356599152E+00
    0.24071275386267121377E+00
    0.23992987438902618758E+00
    0.23501104867572264467E+00
    0.23949779178510355315E+00
    0.22259834510387116469E+00
    0.21281466685516367554E+00
    0.10000551493388436242E+00
    0.18352955246971525138E+00
    0.29044918917543988135E-01
    0.30493811307049728532E-01
    0.16290099981012570729E+00
    0.11287100332644738054E+00
    0.16069682809135923951E+00
    0.11205595608279778075E+00
    0.72100460541573915818E-01
    0.73803976319522346383E-01
    0.25980344363895742366E-01
    0.22907676866820207706E-01
    0.18652433263665967045E-01
    0.21035918691094349087E-01
    0.17827751065953880566E-01
    0.17232861696869054141E-01
    0.16362668339382824279E-01
    0.16822539119718513817E-01
    0.16452393432988869637E-01
    0.16027886479024332222E-01
    0.16031241167858985286E-01
    0.16112604440814547180E-01
    0.15006194591277196085E-01
    0.15309549948510598610E-01
    0.15066220387978886824E-01
    0.15307614564472125929E-01
    0.15891284475293032674E-01
    0.15555110352724721423E-01
    0.15120384198313465210E-01
    0.14905548337001913589E-01
    0.15618133132789886047E-01
    0.15834668905188968580E-01
    0.15461775820633877343E-01
    0.15131798970090714479E-01
    0.18525948662059702615E-01
    0.18877183029150999827E-01
    0.18879060516962978961E-01
    0.18379986557622202820E-01
    0.17410501934983300953E-01
    0.17516342386565256217E-01
    0.17632571111377996764E-01
    0.18092330400889061748E-01
    0.17194892202069305548E-01
    0.16658812007791228005E-01
    0.14992469917633036852E-01
    0.16005686360736647023E-01
    0.15477935458727342527E-01
    0.15699328999100863047E-01
    0.14688476610307216880E-01
    0.14881342134825665049E-01
    0.25489058367380657000E+00
    0.25682387095732123194E+00
    0.25804801640767177640E+00
    0.25352269739586485997E+00
    0.25467490303803280716E+00
    0.24943585851069510761E+00
    0.24567231632032887623E+00
    0.24751048573137693354E+00
    0.24757225923941261758E+00
    0.25399711121748852483E+00
    0.33001164051823385359E-01
    0.10708280500264147350E+00
    0.31382809645079029481E-01
    0.32808601813680560166E-01
    0.10953030581693359857E+00
    0.29001347377055161636E-01
    0.24944961583339136935E+00
    0.12416527299912544224E+00
    0.36858768397346787504E-01
    0.22433857918451705071E+00
    0.24477789915614195371E+00
    0.16934626469303573626E+00
    0.67514499937544977803E-01
    0.36261495667591306380E-01
    0.32115257478393839652E-01
    0.26362687959139746025E-01
    0.24626196529354937859E-01
    0.27007569236699061760E-01
    0.38885694537070518428E-01
    0.22544685330605984674E+00
    0.25129039042617717925E+00
    0.24268176233432386946E+00
    0.25523857291327517460E+00
    0.21477937223124671240E+00
    0.25016774288252352498E+00
    0.22365580965670062152E+00
    0.22269750398079177223E+00
    0.12432338170096654539E+00
    0.12480698301292003638E+00
    0.25350109820530464244E+00
    0.38165098065069347211E-01
    0.33656026800568075719E-01
    0.28598673260146610653E-01
    0.32361682260658053423E-01
    0.30082306831952482229E-01
    0.28110134084816714578E-01
    0.22302044597830944506E+00
    0.33018203727212126763E-01
    0.40836617236659475405E-01
    0.13807090915086214777E+00
    0.13685022086421433363E+00
    0.28304337506252823242E-01
    0.44119185470377186853E-01
    0.19442367794135946568E-01
    0.21785081362130760685E-01
    0.18549287755928709626E-01
    0.25165264201652739334E-01
    0.26463733482084368653E-01
    0.17040267337970853995E-01
    0.18632146600825807981E-01
    0.29897315626921005388E-01
    0.11474297569293144539E+00
    0.27905217790418743867E-01
    0.19760290792845794372E+00
    0.11707042515426016593E+00
    0.25541327821141872334E-01
    0.30592972233274267485E-01
    0.24630023137181886184E+00
    0.25081782096203636412E+00
    0.21829510139850064054E+00
    0.25743589040193659567E+00
    0.25209116254422292425E+00
    0.24294690179864711355E+00
    0.21607808013474960607E+00
    0.16591642044544396145E-01
    0.15845844903696927608E-01
    0.15594187553967304993E-01
    0.20275096049910727725E-01
    0.19470610303791727191E-01
    0.14894281983683197931E-01
    0.14999865115197274709E-01
    0.25281600182348024086E+00
    0.24879458938751058961E+00
    0.18664083955158744521E+00
    0.24708323369496759669E+00
    0.17950287284912858077E+00
    0.25896077350238300152E+00
    0.25488824324664727250E+00
    0.25742838725789962684E+00
    0.25398341095514898047E+00
    0.25491698124346201526E+00
    0.24942817804387207303E+00
    0.13088322447362363277E+00
    0.23443016547675127326E+00
    0.23237856367662526602E+00
    0.22062072761872125737E+00
    0.13423567332879821068E+00
    0.24397550985648507743E-01
    0.27710784021121082771E-01
    0.25109658511292796274E-01
    0.25324455436189104857E-01
    0.27144885830417145312E-01
    0.25730834823342046969E+00
    0.25446338476440849563E+00
    0.24970882569269248208E+00
    0.25741633768432736762E+00
    0.25539521848976703966E+00
    0.35605520727495759692E-01
    0.10616849551080573266E+00
    0.10501095582752162372E+00
    0.34409273448381655358E-01
    0.35908763524177683690E-01
    0.25315439029442554641E+00
    0.25916398307850319060E+00
    0.25506164977586170961E+00
    0.25558207829544776768E+00
    0.25379428901987211020E+00
    0.34579330974195195136E-01
    0.10323698348893185772E+00
    0.33599217524174163074E-01
    0.38057400972932683980E-01
    0.10413781211370271018E+00
    0.25307368509906202902E+00
    0.24923522829875932594E+00
    0.24405879391701956749E+00
    0.26766057280059352141E+00
    0.22524985097607203022E+00
    0.23965459844583734267E-01
    0.25768803269520280941E-01
    0.23193509400387092578E-01
    0.25831035114278262654E-01
    0.26278552548101546948E-01
    0.17253508878092214257E-01
    0.20064656211536371910E-01
    0.20314666254848564447E-01
    0.17723603032328665019E-01
    0.19762848231847960495E-01
    0.43918297869066182104E-01
    0.22603779742775517714E+00
    0.12782613498074502090E+00
    0.24549260084909629853E+00
    0.22254094221522213726E+00
    0.12166323088250599604E+00
    0.10803687449766484485E+00
    0.22584763927846823739E+00
    0.21375230419263024917E+00
    0.24695752120167757671E+00
    0.25426832287852790815E+00
    0.23905632333495599462E+00
    0.23592952956831997335E+00
    0.24861650143677466174E+00
    0.41783370839237471417E-01
    0.32781791916089424166E-01
    0.30196784611693804068E-01
    0.19478002129920005125E+00
    0.30424376145614079325E-01
    0.11164157777902852797E+00
    0.16725184547056636680E-01
    0.19637288163590067847E-01
    0.24162858169952478038E-01
    0.24778099300978607966E-01
    0.23705017327556140300E-01
    0.26443982787652416805E-01
    0.27136435506882314317E-01
    0.34313376081556275221E-01
    0.36367090567211109164E-01
    0.18675898167825524809E+00
    0.11943474416111561631E+00
    0.25229470986257651610E+00
    0.27233367366111815855E+00
    0.24994953035165365374E+00
    0.20308748336625290221E+00
    0.25437887389851931985E+00
    0.10974467378597130285E+00
    0.30003461299327641165E-01
    0.29552920613219922641E-01
    0.25362759521256206252E+00
    0.25232522481041402829E+00
    0.24007448331983715500E-01
    0.20345464757307561016E-01
    0.16791065618705008217E-01
    0.38171569579707256836E-01
    0.27010611801360995265E-01
    0.23766924360059716453E-01
    0.22475143200049976788E+00
    0.22806732475588195608E+00
    0.32323295972622685668E-01
    0.25994489291045086432E+00
    0.23071191146916372738E+00
    0.21742698857753953168E+00
    0.29096791294397780780E-01
    0.30249581346334646070E-01
    0.18981722262975848914E-01
    0.25179442678323538107E+00
    0.25172553938468145152E+00
    0.24161141576756742233E+00
    0.21231511129580438180E-01
    0.20984943308315889138E-01
    0.15424769001361596232E-01
    0.19431615569600844962E-01
    0.17489929847098087401E-01
    0.14826550020328154930E-01
    0.24533366308484041984E+00
    0.20701232117799278631E+00
    0.25593706326419274344E+00
    0.26318043724545786555E+00
    0.36266945734513188204E-01
    0.25333556729678824437E+00
    0.21835230759224355523E+00
    0.20116634462003607497E+00
    0.25630745449104680445E-01
    0.13481254376789614247E+00
    0.41023256479395558971E-01
    0.27599150721944826214E-01
    0.24404985118546224099E+00
    0.22905062739225512392E+00
    0.87997819549855749166E-01
    0.25084603860863058378E+00
    0.23821674893362190795E+00
    0.24213291360130274193E-01
    0.27759092334850243855E-01
    0.16925481693284130658E-01
    0.18060268015448258105E-01
    0.20449970801009650923E+00
    0.11889287193957433220E+00
    0.14352907117693316716E-01
    0.14532809957881106730E-01
    0.22508152284929675013E+00
    0.29901058909610991887E-01
    0.30058712660765245922E-01
    0.24556001762702323044E+00
    0.23256572205127418185E-01
    0.20827074456492372656E+00
    0.16526169490871525647E+00
    0.21528695723157915964E-01
    0.25032993045422380352E+00
    0.20293760698581436719E+00
    0.25091807549576616854E+00
    0.44496779632139264737E-01
    0.25126735403675859448E+00
    0.24420351188541550291E-01
    0.26780704010790960801E-01
    0.40969764500812591579E-01
    0.24996544683756805050E+00
    0.25264539431931820612E+00
    0.33425368323295873152E-01
    0.24949007617692892103E+00
    0.25038707593286457787E+00
    0.43408940508427834581E-01
    0.27779066141815640656E-01
    0.19345622292640751727E-01
    0.15142551827879787915E-01
    0.24966912886743679312E-01
    0.20720075064748041255E-01
    0.15806991240014559713E-01
    0.15754001582806900078E-01
    0.16221749011199996376E-01
    0.15358497128958530087E-01
    0.23124604425876840730E-01
    0.27656775052609428728E-01
    0.11979408410294589693E+00
    0.13247000437853831412E+00
    0.13231709341256958634E+00
    0.12553791148794052335E+00
    0.11283520606068002390E+00
    0.23142726426156848274E-01
    0.72096314627893398619E-01
    0.23311596903980210532E-01
    0.21255461166685980789E-01
    0.18503462531974865235E-01
    0.16471886249576947470E-01
    0.16764358380850365171E-01
    0.15434745533937121661E-01
    0.14463491798822924669E-01
    0.14280590476013897694E-01
    0.14156346687903963166E-01
    0.14875302940325602075E-01
    0.15280957099188497220E-01
    0.16110421877173656396E-01
    0.15412319727078972395E-01
    0.14812258841837984760E-01
    0.14702748061130048798E-01
    0.14701964241478312698E-01
    0.14805279162755962535E-01
    0.14698009351981670967E-01
    0.15703969666404284100E-01
