# vtk DataFile Version 3.0
LAPLACIEN  2D
ASCII
DATASET UNSTRUCTURED_GRID
 POINTS        1516  float
  0.50009042000000004       0.49685350000000000        0.0000000000000000     
  0.29280878999999999       0.29407436999999997        0.0000000000000000     
  0.70955009000000002       0.70981006000000002        0.0000000000000000     
  0.71064956000000001       0.28967123000000000        0.0000000000000000     
  0.29473250000000001       0.70698041000000000        0.0000000000000000     
  0.49601276000000000       0.22409197000000000        0.0000000000000000     
  0.77973824999999997       0.50582700000000003        0.0000000000000000     
  0.50014395000000000       0.77701156000000005        0.0000000000000000     
  0.21266830000000000       0.50501266000000000        0.0000000000000000     
  0.16932810000000001       0.17543417000000000        0.0000000000000000     
  0.83168655999999996       0.82924503999999999        0.0000000000000000     
  0.82924503999999999       0.16831344000000001        0.0000000000000000     
  0.17075496000000001       0.83168655999999996        0.0000000000000000     
  0.43578920999999998       0.35833240000000000        0.0000000000000000     
  0.63948273000000000       0.56478775000000003        0.0000000000000000     
  0.35985096999999999       0.57093028000000001        0.0000000000000000     
  0.64300122000000004       0.84590626000000002        0.0000000000000000     
  0.36015138000000002       0.15358537999999999        0.0000000000000000     
  0.15671948999999999       0.35773458000000002        0.0000000000000000     
  0.84537978000000003       0.35577354999999999        0.0000000000000000     
  0.84542673999999995       0.64164620999999999        0.0000000000000000     
  0.64055245000000005       0.15487635000000000        0.0000000000000000     
  0.15446998000000001       0.64131327000000005        0.0000000000000000     
  0.35842743999999999       0.84538767000000004        0.0000000000000000     
  0.58036399000000005       0.36898788999999999        0.0000000000000000     
  0.52327071999999997       0.64341464999999998        0.0000000000000000     
  0.31984948000000002       0.41684040999999999        0.0000000000000000     
  0.69367761999999999       0.41687254000000001        0.0000000000000000     
  0.41047932999999998       0.70473459000000005        0.0000000000000000     
  0.59195732000000001       0.71927012999999995        0.0000000000000000     
  0.53714998999999997       0.89042226999999996        0.0000000000000000     
  0.46664006000000002       0.10974356000000000        0.0000000000000000     
  0.11153861000000000       0.46621057999999999        0.0000000000000000     
  0.89063848000000001       0.47218395000000002        0.0000000000000000     
  0.60005439999999999       0.26940141000000001        0.0000000000000000     
  0.73651323999999996       0.88555899999999999        0.0000000000000000     
  0.10609679000000000       0.25238258000000002        0.0000000000000000     
  0.26338917000000001       0.11470150000000000        0.0000000000000000     
  0.88529849999999999       0.26338917000000001        0.0000000000000000     
  0.88841183999999995       0.74176089000000001        0.0000000000000000     
  0.74176089000000001       0.11158816000000001        0.0000000000000000     
  0.11302384000000000       0.73767143999999996        0.0000000000000000     
  0.25846910000000001       0.88837984999999997        0.0000000000000000     
  0.39276481000000002       0.26026133000000001        0.0000000000000000     
  0.74379393000000005       0.60539953999999996        0.0000000000000000     
  0.25867135000000002       0.59958257000000004        0.0000000000000000     
  0.60022043000000003       0.47483159000000003        0.0000000000000000     
  0.40146807000000001       0.47172984000000001        0.0000000000000000     
   9.3979599999999996E-002   9.1864650000000006E-002   0.0000000000000000     
  0.90646658000000002       0.90547398000000001        0.0000000000000000     
  0.90547398000000001        9.3533420000000006E-002   0.0000000000000000     
   9.4526020000000002E-002  0.90646658000000002        0.0000000000000000     
  0.90603352000000004       0.55945769999999995        0.0000000000000000     
  0.55945769999999995        9.3966480000000005E-002   0.0000000000000000     
   9.3966480000000005E-002  0.55945769999999995        0.0000000000000000     
  0.43965862000000000       0.91008893999999996        0.0000000000000000     
  0.73936985000000000       0.79939687999999998        0.0000000000000000     
  0.25808609999999998       0.20225058000000001        0.0000000000000000     
  0.79950997999999995       0.26050676000000000        0.0000000000000000     
  0.20903700000000000       0.74602950000000001        0.0000000000000000     
  0.51019912999999995       0.30785683000000003        0.0000000000000000     
  0.19709441000000000       0.27813728999999998        0.0000000000000000     
  0.79397943000000004       0.71362444000000003        0.0000000000000000     
  0.72077237999999999       0.20857416000000001        0.0000000000000000     
  0.28232308000000000       0.79784562999999997        0.0000000000000000     
  0.45002842999999998       0.58041003000000002        0.0000000000000000     
  0.24206887999999999       0.36539011999999998        0.0000000000000000     
  0.50240527000000001       0.40874115999999999        0.0000000000000000     
  0.69787266000000003       0.49744363000000003        0.0000000000000000     
  0.63652279000000000       0.65338169999999995        0.0000000000000000     
  0.30678966000000002       0.50330836999999995        0.0000000000000000     
  0.55804538000000004       0.56013272999999997        0.0000000000000000     
  0.78473908000000003       0.41906125999999999        0.0000000000000000     
  0.41681289999999999       0.78327389999999997        0.0000000000000000     
  0.81702944000000000       0.91636123000000003        0.0000000000000000     
   8.0601590000000001E-002  0.18517997000000000        0.0000000000000000     
  0.17956701000000000        7.8926839999999998E-002   0.0000000000000000     
  0.91636123000000003       0.18297056000000000        0.0000000000000000     
  0.92078210999999999       0.81543562000000003        0.0000000000000000     
  0.81543562000000003        7.9217889999999999E-002   0.0000000000000000     
   8.3638770000000001E-002  0.81702944000000000        0.0000000000000000     
  0.18456438000000000       0.92078210999999999        0.0000000000000000     
  0.34185365000000001       0.64907157000000004        0.0000000000000000     
  0.60712305000000000       0.92404640999999998        0.0000000000000000     
   7.9494029999999993E-002  0.39634058999999999        0.0000000000000000     
  0.39040704999999998        7.7871659999999995E-002   0.0000000000000000     
  0.92574208999999996       0.38712774999999999        0.0000000000000000     
  0.35207945000000002       0.34021172999999999        0.0000000000000000     
  0.92316257999999995       0.65621616999999999        0.0000000000000000     
  0.65621616999999999        7.6837420000000003E-002   0.0000000000000000     
   7.7592490000000000E-002  0.65548313999999996        0.0000000000000000     
  0.34378383000000001       0.92316257999999995        0.0000000000000000     
  0.65763702000000002       0.76498270000000002        0.0000000000000000     
  0.57502123000000005       0.79886235000000005        0.0000000000000000     
  0.82488251999999995       0.56973017999999997        0.0000000000000000     
  0.56350595999999997       0.17262927000000000        0.0000000000000000     
  0.17499060000000000       0.56978097999999999        0.0000000000000000     
  0.76449263000000001       0.34243157000000002        0.0000000000000000     
  0.19019549999999999       0.42526652999999998        0.0000000000000000     
  0.42831627000000000       0.18065569000000001        0.0000000000000000     
  0.65841015000000003       0.34563083000000000        0.0000000000000000     
  0.48887922000000000       0.70804370999999999        0.0000000000000000     
  0.34753611000000001       0.76148972000000004        0.0000000000000000     
  0.21891395999999999       0.66679798000000001        0.0000000000000000     
  0.33297661000000001       0.21824681000000001        0.0000000000000000     
  0.67975847000000000       0.93479042000000001        0.0000000000000000     
   6.3727629999999993E-002  0.32131759999999998        0.0000000000000000     
  0.32762195000000000        6.8773239999999999E-002   0.0000000000000000     
  0.93136578000000003       0.32807139000000002        0.0000000000000000     
  0.64698155999999996       0.21061173999999999        0.0000000000000000     
  0.45602714999999999       0.83776974000000004        0.0000000000000000     
  0.39129820999999998       0.41222850999999999        0.0000000000000000     
  0.25746412000000002       0.44439139999999999        0.0000000000000000     
  0.44813239999999999       0.63793893000000002        0.0000000000000000     
  0.46747592999999998       0.27117379000000003        0.0000000000000000     
  0.58952952999999997       0.62779850000000004        0.0000000000000000     
  0.76356464999999996       0.66166265999999996        0.0000000000000000     
  0.63507016000000005       0.42228151000000003        0.0000000000000000     
  0.94023380000000001       0.50617835000000000        0.0000000000000000     
  0.50565035999999997        5.9802580000000001E-002   0.0000000000000000     
  0.49453327000000002       0.93969469000000005        0.0000000000000000     
   5.9973539999999999E-002  0.50560945999999996        0.0000000000000000     
  0.40175032999999999       0.60553997999999998        0.0000000000000000     
  0.83933382999999995       0.41297020000000001        0.0000000000000000     
  0.44672879999999998       0.43017311000000003        0.0000000000000000     
[...]
 CELL_DATA        1439
 SCALARS U float
 LOOKUP_TABLE default
    0.11756609810698427990E-03
    0.18713824469692552210E-02
    0.46078215618193154102E-05
    0.74144936708111806108E-06
    0.22810547794617036478E-03
    0.29750774943235257057E-03
    0.15983822736392584675E-03
    0.72458831998073241695E-03
    0.45438026307784552902E-03
    0.10625256832057026601E-02
    0.16773431570442003200E-02
    0.41999049164456354888E-02
    0.26686525407936491014E-02
    0.57123541048793163855E-02
    0.81016018329509598833E-02
    0.17273840787018202719E-01
    0.11349841425511741563E-01
    0.18618107730579057379E-01
    0.24478038408070945664E-01
    0.34252849801468726598E-01
    0.70833504103554309483E-01
    0.48274598780116265151E-01
    0.11352462245500202775E+00
    0.89074965910201892028E-01
    0.12306931691963016173E+00
    0.12326862145352993072E+00
    0.13941049063338376013E+00
    0.13002733098494667630E+00
    0.13359078811891877958E+00
    0.10706953033861991986E+00
    0.80952941108323323016E-01
    0.90228637205289383139E-01
    0.54831425035942835122E-01
    0.70539526181432304908E-01
    0.41904236420351875791E-01
    0.27190613477277910531E-01
    0.13191475814009617773E-01
    0.18542950966310589589E-01
    0.97827666141673437494E-02
    0.63832743315565187645E-02
    0.35176875677008631257E-02
    0.43704245414725052116E-02
    0.24618258635444112761E-02
    0.30990231298532013374E-02
    0.33548992897040443364E-02
    0.22234285491401391266E-02
    0.59411487785819665219E-02
    0.43311304739222728291E-02
    0.69230315493049544504E-02
    0.76471794621876705567E-02
    0.11212142208345043937E-01
    0.89735726580003997988E-02
    0.11771021995844069968E-01
    0.11133610008289815396E-01
    0.14316337803460369577E-01
    0.11214355265012852444E-01
    0.11272812206338415214E-01
    0.10643897706437942252E-01
    0.92621072745218413491E-02
    0.83414986666728342668E-02
    0.85045637015481821003E-02
    0.60920997241365824199E-02
    0.74996036365046593944E-02
    0.49207830881486122956E-02
    0.34070865543227050673E-02
    0.18710478121556958081E-02
    0.25198555226467757827E-02
    0.14328837609812977542E-02
    0.92322547858794017702E-03
    0.43701328839896289892E-03
    0.61415424984760365410E-03
    0.22511372966286299219E-03
    0.32780051851427144871E-03
    0.15791864510848518726E-03
    0.95480439909274942298E-04
    0.38599163638777225695E-04
    0.59248295697672388152E-04
    0.27202609717505377775E-04
    0.17257396122382018055E-04
    0.89067185443710412241E-05
    0.11411977041821188495E-04
    0.62043849477999361944E-05
    0.74616485519751834141E-05
    0.79135664391902781642E-05
    0.53794227300519559232E-05
    0.13770750542128703153E-04
    0.10110476189419105057E-04
    0.16078153851647189134E-04
    0.18014460652307528918E-04
    0.28038449668391821447E-04
    0.21717067415013217152E-04
    0.30438639688191552492E-04
    0.30233862214692370509E-04
    0.42485847668482292503E-04
    0.31807549955499585985E-04
    0.36600032524135025591E-04
    0.38133039839628648376E-04
    0.38489554359185865337E-04
    0.48834275171698666637E-04
    0.41578046600175758824E-04
    0.52126785321240188880E-04
    0.51530209345213367979E-04
    0.48701813153462438389E-04
    0.39697394693903587364E-04
    0.32232039360180925755E-04
    0.35094606740537985891E-04
    0.28609772217946844331E-04
    0.21650726821332534828E-04
    0.15549214206128356196E-04
    0.17456432363392460896E-04
    0.11078736305863347858E-04
    0.13728071042700325672E-04
    0.87385623699949476010E-05
    0.59966296890638416344E-05
    0.35287288743676069112E-05
    0.44461371078635277644E-05
    0.28185706572262202327E-05
    0.19655509190357153757E-05
    0.12835953601216946887E-05
    0.14504644281883835699E-05
    0.90773317434427396260E-06
    0.18431002447911554133E-03
    0.18959087743265626898E-03
    0.13421948201068536338E-03
    0.30999875243358643436E-03
    0.23585332514584862003E-03
    0.34727854350321651737E-03
    0.35521468215460392636E-03
    0.45173942519400347951E-03
    0.38408994915564671291E-03
    0.47587276493765169995E-03
    0.46814759250062942635E-03
    0.53022629739937841408E-03
    0.45880022122864085998E-03
    0.44644130233796158183E-03
    0.43673793859377104017E-03
    0.39446132155206430243E-03
    0.37057067131832002304E-03
    0.36820484672493388779E-03
    0.31327728533231099031E-03
    0.35183388768205174288E-03
    0.26724953493347447173E-03
    0.19612533378380358541E-03
    0.12524747048392733209E-03
    0.15545703908510102669E-03
    0.10151686425945171972E-03
    0.69253931430002173644E-04
    0.38756625844286462525E-04
    0.49661285702295742447E-04
    0.22901376952709080986E-04
    0.31041003509462119689E-04
    0.17200106016298378879E-04
    0.10971655009381307212E-04
    0.51389969251352542360E-05
    0.72848815330889335332E-05
    0.38079658706846049283E-05
    0.24602941198103474500E-05
    0.13808725711931797456E-05
    0.16874574393517302443E-05
    0.96190837844051214462E-06
    0.23368260708300744866E+00
    0.62594884686731799839E+00
    0.23500123056398342092E+00
    0.38477965260258956137E+00
    0.35120613149412283072E+00
    0.55562488587953762220E+00
    0.14633364701455059409E+00
    0.76596657945606022588E-01
    0.55237494148968765972E-01
    0.54125274075191895373E-01
    0.87439652484578841984E-01
    0.11285917809159096148E+00
    0.91027550947794643593E-02
    0.30970552990599244277E-02
    0.28810780386155131552E-02
    0.75138453804868086255E-02
    0.42756911205948907109E-02
    0.52365993985129819302E-02
    0.29820508989829832558E+01
    0.12654186133699845129E+01
    0.19870173110707858299E+01
    0.10654950603486796901E+01
    0.13657888428966826755E+01
    0.21696588328607417928E+01
    0.19564917868419369647E-02
    0.17728612610629966660E-02
    0.79983483658380616268E-03
    0.10843605907781244790E-02
    0.10270750373880886252E-02
    0.20489037744338776253E-02
    0.20840441767748894009E+01
    0.16644550165819183007E+01
    0.38705199668399399293E+01
    0.15737090856416815488E+01
    0.26645805774000024257E+01
    0.29357114435534308328E+01
    0.15720137153807820507E+01
    0.82610657259844150202E-01
    0.67794279274221422305E-01
    0.17692531309854586663E+00
    0.11082215011107840463E+00
    0.62095890364989712873E-01
    0.12757425756088316970E+00
    0.62126119624340218894E-01
    0.25200510818721667469E-02
    0.21183962080760371238E-02
    0.14056739613344851857E-02
    0.26675407365216235664E-02
    0.16134694870110323842E-02
    0.11651957729274520226E-02
    0.41808969952360445360E-02
    0.80393652902547747818E-02
    0.55486733479573856209E-02
    0.49674213550203625764E-02
    0.10343938058010551662E-01
    0.78770579795324879163E-02
    0.46264170878809324217E-02
    0.55230944740110275715E-02
    0.82245760749725550093E-02
    0.31428947670343347284E-02
    0.84326370232494177875E-02
    0.36842794385050325716E-02
    0.45869915934433208582E-02
    0.39688699555985248752E-03
    0.27173288130147895802E-03
    0.14073484743097830702E-03
    0.39358813222854592941E-03
    0.24797697185039471431E-03
    0.15446242749534745686E-03
    0.18417525673978228391E-03
    0.15841636606295136924E+00
    0.11351763443879911430E+00
    0.59129213546293982184E-01
    0.16345116694990302619E+00
    0.99260588032598684460E-01
    0.63537321306174635027E-01
    0.77704652421389699968E-01
    0.56427236397401688136E-04
    0.61846162614825349910E-04
    0.25878054744290679461E-04
    0.73641628995720182188E-04
    0.35085691419036046002E-04
    0.24629195757080773256E-04
    0.38944224422634893170E-04
    0.90716438511032382319E+00
    0.18296414968187455496E+01
    0.15349795698002708377E+01
    0.74125180743866492250E+00
    0.12374036257486853430E+01
    0.84898140853090153790E+00
    0.21589703366234602733E+00
    0.82031049078400003483E-01
    0.18581964033164805050E+00
    0.13181525163372476150E+00
    0.81940993591655630901E-01
    0.11413589120446694658E+00
    0.26930543731946299940E-01
    0.16728860448932247190E-01
    0.40792584816270210935E-01
    0.40723130450544701986E-01
    0.23872213056523733377E-01
    0.19563378241868420448E-01
    0.45034388455616222550E-03
    0.51061071073245259226E-03
    0.33879869937864968369E-03
    0.75485845539467061067E-03
    0.67578631680906633711E-03
    0.37042900136258433488E-03
    0.79844340163370219887E-01
    0.16431510039817745494E+00
    0.21555545277732474085E+00
    0.78072866459536593986E-01
    0.10684856155898836416E+00
    0.20368329109605698424E+00
    0.12877082755296478944E+00
    0.54011997601317203455E-02
    0.39576880164585810304E-02
    0.90870571031336604129E-02
    0.33908727473315582526E-02
    0.75236348963337845025E-02
    0.10623583763942996694E+00
    0.12838174699450075056E+00
    0.88730018791577547344E-01
    0.16890750949398733449E+00
    0.17871323671302408176E+00
    0.81326744484781499089E-01
    0.31204015956458695108E-02
    0.84214276337788943755E-02
    0.41879242361777743731E-02
    0.50401622498266393513E-02
    0.32551924085989594228E-02
    0.68214675467053471208E-02
    0.17542728297141712002E+01
    0.84723825584541834210E+00
    0.78603445034751429077E+00
    0.10067669902816458460E+01
    0.12001904369243108217E+01
    0.76412449628956302661E+00
    0.14832747256794862611E+01
    0.34228335875462710929E-03
    0.95787595367774393956E-03
    0.40154565292569908107E-03
    0.57692527723675313643E-03
    0.33468647787733844974E-03
    0.70523639660646764669E-03
    0.16578178645847068480E-03
    0.16328934365921783786E-03
    0.27885500017671682174E-03
    0.26233106278409273676E-03
    0.34989724178501394047E-03
    0.14296718774778268161E-03
    0.66190916543323519150E+01
    0.32262606501490496136E+01
    0.47379110372786792382E+01
    0.58312329306094898840E+01
    0.35602660063041215999E+01
    0.41624816884634761038E+01
    0.15598114210200367258E-01
    0.38370817612491683879E-01
    0.43348973268800411462E-01
    0.20516905034188463036E-01
    0.25096356027449591430E-01
    0.90345970252814530865E-01
    0.84673524563360288986E-01
    0.67939890157322310738E-01
    0.63764419516785145192E-01
    0.12814874714461160776E+00
    0.11692109907421038839E+00
    0.12819181284554006517E+01
    0.58639180620143160905E+00
    0.11361434009172379778E+01
    0.90671166608127995445E+00
    0.75937542390908496781E+00
    0.14465024816338414304E+01
    0.71251798928965470736E+00
    0.38152725600726026395E-02
    0.36101977442411850583E-02
    0.31243831899730239651E-02
    0.67351091121950618090E-02
    0.63103413732057030139E-02
    0.76164123785885089885E-02
    0.65849995841502119431E-02
    0.48321946317461915432E-02
    0.95847651812324893839E-02
    0.44691667864313264213E-02
    0.12666695380910916475E-03
    0.12253046851401873992E-03
    0.33258397716927096555E-03
    0.35174354592724699524E-03
    0.21151522503184348430E-03
    0.20258893438808352758E-03
    0.22733670243326734028E+00
    0.61585962264808946642E+00
    0.18293861517884704715E+00
    0.27166277959339690806E+00
    0.39023771105958215966E+00
    0.44279845467479689303E+00
    0.21415057203352591553E+00
    0.74862033575410916533E-03
    0.18222633120766888910E-02
    0.81068451135777436743E-03
    0.21644802046972724634E-02
    0.10936711166226083247E-02
    0.23535133648931918365E-02
    0.13682857297118565954E-02
    0.13307042011054983147E-01
    0.29647576508317285970E-01
    0.16321848129911761816E-01
    0.18492928649231112070E-01
    0.28754080850207044961E-01
    0.36256995845999132055E-01
    0.69446104011966092173E+01
    0.80283596959818606109E+01
    0.60855158209806532454E+01
    0.55428129416378109084E+01
    0.71588927469756855615E+01
    0.58810832163216479884E+01
    0.63945955091587665109E+01
    0.24996799875234886404E-03
    0.81636111520678260301E-04
    0.19743690709141348228E-03
    0.18261619553241916891E-03
    0.12075897572951280971E-03
    0.22643257847231983973E-03
    0.11298943244681696114E-03
    0.36367767702009060754E-02
    0.11481106316808768059E-02
    0.25568128547968620862E-02
    0.11824723869290100497E-02
    0.16976111860289087689E-02
    0.19254732711662500728E-02
    0.31318126079701263768E-02
    0.29795431523169720045E-01
    0.99436880735750063365E-02
    0.13439378835150717767E-01
    0.29084570900026855689E-01
    0.10561854881470131989E-01
    0.20381747832959110078E-01
    0.16616819616157053885E-01
    0.87227271494094385518E-01
    0.31245342943021857385E-01
    0.79041757071601159712E-01
    0.60046637538045732896E-01
    0.47811178336559137514E-01
    0.85380201799372099081E-01
    0.39922431069716629581E-01
    0.59664836541887600937E-03
    0.38743574876802858425E-03
    0.10670218979810356958E-02
    0.50868601509520877581E-03
    0.43079001763218955929E-03
    0.78951478169356204256E-03
    0.39850617285647758122E-03
    0.87453542919682561007E-03
    0.21164328504191007307E+00
    0.11191595182977981393E+00
    0.32238387958977410275E+00
    0.13460140100645265337E+00
    0.14890458187410274271E+00
    0.21374306952322730258E+00
    0.12766081352231514745E+00
    0.29690687597891923799E+00
    0.13146435674700062031E-03
    0.43838145901363150968E-04
    0.77983771063238515242E-04
    0.55105655211627787150E-04
    0.92044930111044202326E-04
    0.54111059954431702597E-04
    0.10961552767125629895E-03
    0.54800416086004644068E-04
    0.24306731487817259012E-04
    0.71972069572816835476E-04
    0.28324039136860326151E-04
    0.37708685091738648016E-04
    0.46172741054391954483E-04
    0.29766556637501180810E-04
    0.70679528723953323650E-04
    0.40113706014795796895E+00
    0.59297608081422636950E+00
    0.46473808780838243848E+00
    0.74386599393563723748E+00
    0.38938739337719180389E+00
    0.80077622393792657896E+00
    0.17002847099039024997E-01
    0.50789581969424915653E-01
    0.22422494076791407713E-01
    0.20282753104493875945E-01
    0.40459374051864421817E-01
    0.33753203561817893275E-01
    0.60408527491869201675E-02
    0.37765730092684818980E-02
    0.58321370701238644391E-02
    0.26421796776568400728E-02
    0.39183461281318060151E-02
    0.29068817121647048604E-02
    0.60971052765912683510E-02
    0.11583171442617223867E+01
    0.86695278137975884114E+00
    0.53055077660860172628E+00
    0.56890106854145316984E+00
    0.76080332510525239265E+00
    0.12474131170621198805E+01
    0.46931450555420850534E+00
    0.25178664802016093027E+00
    0.34152702570057535958E+00
    0.18692975329605832080E+00
    0.13254520471193054210E+00
    0.11601555974252099335E+00
    0.27197409928539856283E+00
    0.14790711676485726600E+00
    0.17720643034991301334E+00
    0.49248818620487239475E-03
    0.66253670953360854420E-03
    0.87185460131035375474E-03
    0.11300666223351808846E-02
    0.11569796767677690327E-02
    0.50352111294451327213E-03
    0.61209612492174776677E-03
    0.20338019717487111052E-04
    0.27641484595726856428E-04
    0.37269603686796690155E-04
    0.48373296046979810539E-04
    0.54599166748397448914E-04
    0.20901145554301120590E-04
    0.25269508183985193116E-04
    0.83306926388820746326E-02
    0.11657308510169748367E-01
    0.14553078639694893084E-01
    0.20267625815028326997E-01
    0.22091150049470452410E-01
    0.87433955467283788754E-02
    0.10055332943065152171E-01
    0.34254602346692051806E-05
    0.50829180924102308181E-05
    0.58722678390210754465E-05
    0.92105128920473227998E-05
    0.83135594865855666946E-05
    0.40427498564105516488E-05
    0.37245371582582569429E-05
    0.67577548863532932097E-02
    0.37601491212170910089E-02
    0.46506113930306503673E-02
    0.46774154931663331630E-02
    0.95745175211689355355E-02
    0.72900937139897432904E-02
    0.10537992919280477627E-01
    0.26715657418188121230E+00
    0.28701912493222964118E+00
    0.43284111963499533049E+00
    0.25313855153726055880E+00
    0.39939848514268272428E+00
    0.60671281083350447894E+00
    0.59296142040520460892E+00
    0.41474063088673399817E-03
    0.26176753629063981548E-03
    0.34591362296388972241E-03
    0.30202349240148048878E-03
    0.61060112847664490838E-03
    0.53702934259628354752E-03
    0.72876956081554037075E-03
    0.93413703558625172329E-04
    0.69343504329189524634E-04
    0.10252068774672931845E-03
    0.14809866049076959816E-03
    0.71305204156560088530E-04
    0.15020988857338739373E-03
    0.61514529004269233054E-03
    0.51430812943597658139E-03
    0.12871070095463971010E-02
    0.69581459023487996288E-03
    0.11840717183672017435E-02
    0.83806964887609292775E-03
    0.10078501255901585205E-02
    0.52622161093432537511E-03
    0.37059762065447601764E-01
    0.20244368936324471514E-01
    0.34881193760631833134E-01
    0.20761296493652998951E-01
    0.50707371608496122628E-01
    0.45655800266986588942E-01
    0.24980297086713405819E-01
    0.26916195809025489361E-01
    0.22407662250955800998E+00
    0.20652563565430157033E+00
    0.52617571854693534483E+00
    0.28370217319663643130E+00
    0.43731863346716365326E+00
    0.28863810446530802079E+00
    0.40879209695067675323E+00
    0.20224379175993451030E+00
    0.14916162702045926663E-03
    0.35544196435864379002E-03
    0.17334353340706773927E-03
    0.47747028416446503753E-03
    0.33654372918950887063E-03
    0.23465146039819195561E-03
    0.19973505130846004184E-03
    0.34575369227980234932E+01
    0.57227353159311054043E+01
    0.67490378660953727064E+01
    0.37408974797602310147E+01
    0.48813383119644413455E+01
    0.33288845340597883471E+01
    0.44051268380609789332E+01
    0.89156128939136946449E-02
    0.89084934320976284783E-02
    0.22490341218593525724E-01
    0.13930048527401352187E-01
    0.22112899593325369835E-01
    0.14751893588948314026E-01
    0.79104760516949326754E-02
    0.48416268487040097640E-02
    0.22168824080468700448E-02
    0.22908580293894316438E-02
    0.35442913832285597581E-02
    0.35179566149865851288E-02
    0.17326731022996649453E-02
    0.17456986409884055374E-02
    0.94071203380696732932E+00
    0.14001717339956925024E+01
    0.10784609113542367176E+01
    0.67478107647323781748E+00
    0.66583468044648963513E+00
    0.18171692102286036118E-03
    0.35069246098319334544E-03
    0.29417766285668562297E-03
    0.43269960171715400685E-03
    0.22989469456067987635E-03
    0.17007966593358156242E-03
    0.37918478387320750378E-01
    0.40358033955457867092E-01
    0.10643587012401395375E+00
    0.10065362344935477323E+00
    0.64320221831448740057E-01
    0.58418915362632044264E-01
    0.53099266455267947473E-01
    0.21848196507428259416E-01
    0.34461843208226046464E-01
    0.19244416771651829540E-01
    0.41523528427287410836E-01
    0.25277558978409910700E-01
    0.10436206359040585134E+01
    0.12886278877374532925E+01
    0.21782985646385570888E+01
    0.29079219990969331633E+01
    0.20414806151818356561E+01
    0.11018697426475903001E+01
    0.14330930495265370439E+01
    0.15521228906187894969E+00
    0.28546818183369870869E+00
    0.31263981946259111755E+00
    0.45748830279800378751E+00
    0.19672291401959679513E+00
    0.20426394134959685589E+00
    0.38808344035664277261E+00
    0.29555288617453212563E-01
    0.12257996924355269580E-01
    0.17641553879900292306E-01
    0.35163864232617865480E-01
    0.14482559829454143274E-01
    0.24611522777650877980E-01
    0.18161548030020537720E-01
    0.55561787257107059235E-01
    0.46411009081645297758E-01
    0.25950741845366977201E-01
    0.37403140402998552583E-01
    0.22410910154820523621E-01
    0.15193377150627362937E+00
    0.24996319361068819465E+00
    0.20575107492675609455E+00
    0.10123237406539678518E+00
    0.12382550674219565401E+00
    0.15900993645080341299E+00
    0.28714212152908163977E+00
    0.17659373573245601419E+00
    0.39167918069160040373E+00
    0.25049319767425259897E+00
    0.18090157453026661262E-02
    0.67801534370316675002E-03
    0.15239959747313761192E-02
    0.82205978625849546963E-03
    0.11030352284396157878E-02
    0.45909844317518512242E-04