# vtk DataFile Version 3.0
LAPLACIEN  2D
ASCII
DATASET UNSTRUCTURED_GRID
 POINTS        1516  float
  0.50009042000000004       0.49685350000000000        0.0000000000000000     
  0.29280878999999999       0.29407436999999997        0.0000000000000000     
  0.70955009000000002       0.70981006000000002        0.0000000000000000     
  0.71064956000000001       0.28967123000000000        0.0000000000000000     
  0.29473250000000001       0.70698041000000000        0.0000000000000000     
  0.49601276000000000       0.22409197000000000        0.0000000000000000     
  0.77973824999999997       0.50582700000000003        0.0000000000000000     
  0.50014395000000000       0.77701156000000005        0.0000000000000000     
  0.21266830000000000       0.50501266000000000        0.0000000000000000     
  0.16932810000000001       0.17543417000000000        0.0000000000000000     
  0.83168655999999996       0.82924503999999999        0.0000000000000000     
  0.82924503999999999       0.16831344000000001        0.0000000000000000     
  0.17075496000000001       0.83168655999999996        0.0000000000000000     
  0.43578920999999998       0.35833240000000000        0.0000000000000000     
  0.63948273000000000       0.56478775000000003        0.0000000000000000     
  0.35985096999999999       0.57093028000000001        0.0000000000000000     
  0.64300122000000004       0.84590626000000002        0.0000000000000000     
  0.36015138000000002       0.15358537999999999        0.0000000000000000     
  0.15671948999999999       0.35773458000000002        0.0000000000000000     
  0.84537978000000003       0.35577354999999999        0.0000000000000000     
  0.84542673999999995       0.64164620999999999        0.0000000000000000     
  0.64055245000000005       0.15487635000000000        0.0000000000000000     
  0.15446998000000001       0.64131327000000005        0.0000000000000000     
  0.35842743999999999       0.84538767000000004        0.0000000000000000     
  0.58036399000000005       0.36898788999999999        0.0000000000000000     
  0.52327071999999997       0.64341464999999998        0.0000000000000000     
  0.31984948000000002       0.41684040999999999        0.0000000000000000     
  0.69367761999999999       0.41687254000000001        0.0000000000000000     
  0.41047932999999998       0.70473459000000005        0.0000000000000000     
  0.59195732000000001       0.71927012999999995        0.0000000000000000     
  0.53714998999999997       0.89042226999999996        0.0000000000000000     
  0.46664006000000002       0.10974356000000000        0.0000000000000000     
  0.11153861000000000       0.46621057999999999        0.0000000000000000     
  0.89063848000000001       0.47218395000000002        0.0000000000000000     
  0.60005439999999999       0.26940141000000001        0.0000000000000000     
  0.73651323999999996       0.88555899999999999        0.0000000000000000     
  0.10609679000000000       0.25238258000000002        0.0000000000000000     
  0.26338917000000001       0.11470150000000000        0.0000000000000000     
  0.88529849999999999       0.26338917000000001        0.0000000000000000     
  0.88841183999999995       0.74176089000000001        0.0000000000000000     
  0.74176089000000001       0.11158816000000001        0.0000000000000000     
  0.11302384000000000       0.73767143999999996        0.0000000000000000     
  0.25846910000000001       0.88837984999999997        0.0000000000000000     
  0.39276481000000002       0.26026133000000001        0.0000000000000000     
  0.74379393000000005       0.60539953999999996        0.0000000000000000     
  0.25867135000000002       0.59958257000000004        0.0000000000000000     
  0.60022043000000003       0.47483159000000003        0.0000000000000000     
  0.40146807000000001       0.47172984000000001        0.0000000000000000     
   9.3979599999999996E-002   9.1864650000000006E-002   0.0000000000000000     
  0.90646658000000002       0.90547398000000001        0.0000000000000000     
  0.90547398000000001        9.3533420000000006E-002   0.0000000000000000     
   9.4526020000000002E-002  0.90646658000000002        0.0000000000000000     
  0.90603352000000004       0.55945769999999995        0.0000000000000000     
  0.55945769999999995        9.3966480000000005E-002   0.0000000000000000     
   9.3966480000000005E-002  0.55945769999999995        0.0000000000000000     
  0.43965862000000000       0.91008893999999996        0.0000000000000000     
  0.73936985000000000       0.79939687999999998        0.0000000000000000     
  0.25808609999999998       0.20225058000000001        0.0000000000000000     
  0.79950997999999995       0.26050676000000000        0.0000000000000000     
  0.20903700000000000       0.74602950000000001        0.0000000000000000     
  0.51019912999999995       0.30785683000000003        0.0000000000000000     
  0.19709441000000000       0.27813728999999998        0.0000000000000000     
  0.79397943000000004       0.71362444000000003        0.0000000000000000     
  0.72077237999999999       0.20857416000000001        0.0000000000000000     
  0.28232308000000000       0.79784562999999997        0.0000000000000000     
  0.45002842999999998       0.58041003000000002        0.0000000000000000     
  0.24206887999999999       0.36539011999999998        0.0000000000000000     
  0.50240527000000001       0.40874115999999999        0.0000000000000000     
  0.69787266000000003       0.49744363000000003        0.0000000000000000     
  0.63652279000000000       0.65338169999999995        0.0000000000000000     
  0.30678966000000002       0.50330836999999995        0.0000000000000000     
  0.55804538000000004       0.56013272999999997        0.0000000000000000     
  0.78473908000000003       0.41906125999999999        0.0000000000000000     
  0.41681289999999999       0.78327389999999997        0.0000000000000000     
  0.81702944000000000       0.91636123000000003        0.0000000000000000     
   8.0601590000000001E-002  0.18517997000000000        0.0000000000000000     
  0.17956701000000000        7.8926839999999998E-002   0.0000000000000000     
  0.91636123000000003       0.18297056000000000        0.0000000000000000     
  0.92078210999999999       0.81543562000000003        0.0000000000000000     
  0.81543562000000003        7.9217889999999999E-002   0.0000000000000000     
   8.3638770000000001E-002  0.81702944000000000        0.0000000000000000     
  0.18456438000000000       0.92078210999999999        0.0000000000000000     
  0.34185365000000001       0.64907157000000004        0.0000000000000000     
  0.60712305000000000       0.92404640999999998        0.0000000000000000     
   7.9494029999999993E-002  0.39634058999999999        0.0000000000000000     
  0.39040704999999998        7.7871659999999995E-002   0.0000000000000000     
  0.92574208999999996       0.38712774999999999        0.0000000000000000     
  0.35207945000000002       0.34021172999999999        0.0000000000000000     
  0.92316257999999995       0.65621616999999999        0.0000000000000000     
  0.65621616999999999        7.6837420000000003E-002   0.0000000000000000     
   7.7592490000000000E-002  0.65548313999999996        0.0000000000000000     
  0.34378383000000001       0.92316257999999995        0.0000000000000000     
  0.65763702000000002       0.76498270000000002        0.0000000000000000     
  0.57502123000000005       0.79886235000000005        0.0000000000000000     
  0.82488251999999995       0.56973017999999997        0.0000000000000000     
  0.56350595999999997       0.17262927000000000        0.0000000000000000     
  0.17499060000000000       0.56978097999999999        0.0000000000000000     
  0.76449263000000001       0.34243157000000002        0.0000000000000000     
  0.19019549999999999       0.42526652999999998        0.0000000000000000     
  0.42831627000000000       0.18065569000000001        0.0000000000000000     
  0.65841015000000003       0.34563083000000000        0.0000000000000000     
  0.48887922000000000       0.70804370999999999        0.0000000000000000     
  0.34753611000000001       0.76148972000000004        0.0000000000000000     
  0.21891395999999999       0.66679798000000001        0.0000000000000000     
  0.33297661000000001       0.21824681000000001        0.0000000000000000     
  0.67975847000000000       0.93479042000000001        0.0000000000000000     
   6.3727629999999993E-002  0.32131759999999998        0.0000000000000000     
  0.32762195000000000        6.8773239999999999E-002   0.0000000000000000     
  0.93136578000000003       0.32807139000000002        0.0000000000000000     
  0.64698155999999996       0.21061173999999999        0.0000000000000000     
  0.45602714999999999       0.83776974000000004        0.0000000000000000     
  0.39129820999999998       0.41222850999999999        0.0000000000000000     
  0.25746412000000002       0.44439139999999999        0.0000000000000000     
  0.44813239999999999       0.63793893000000002        0.0000000000000000     
  0.46747592999999998       0.27117379000000003        0.0000000000000000     
  0.58952952999999997       0.62779850000000004        0.0000000000000000     
  0.76356464999999996       0.66166265999999996        0.0000000000000000     
  0.63507016000000005       0.42228151000000003        0.0000000000000000     
  0.94023380000000001       0.50617835000000000        0.0000000000000000     
  0.50565035999999997        5.9802580000000001E-002   0.0000000000000000     
  0.49453327000000002       0.93969469000000005        0.0000000000000000     
   5.9973539999999999E-002  0.50560945999999996        0.0000000000000000     
  0.40175032999999999       0.60553997999999998        0.0000000000000000     
  0.83933382999999995       0.41297020000000001        0.0000000000000000     
  0.44672879999999998       0.43017311000000003        0.0000000000000000     
[...]
 CELL_DATA        1439
 SCALARS U float
 LOOKUP_TABLE default
    0.12435604499245124684E-02
    0.17922464784054136649E-01
    0.57253494505435503499E-04
    0.92966316946717674808E-05
    0.19471295334482635608E-02
    0.23731662915915077879E-02
    0.15010770215472513632E-02
    0.49215977660402093416E-02
    0.33924376020354452509E-02
    0.69366889862076033108E-02
    0.10432765666973198987E-01
    0.22176655615955980644E-01
    0.16054588628357329555E-01
    0.29157211622007527668E-01
    0.39695287523524414031E-01
    0.70403920157588506523E-01
    0.53169647407292935926E-01
    0.79658117137909767447E-01
    0.10240409414331219651E+00
    0.14454239921472480934E+00
    0.25268780564013870737E+00
    0.19848682090095332020E+00
    0.34052790801512716756E+00
    0.29474455096117246899E+00
    0.36611421391612225529E+00
    0.38139482531707180613E+00
    0.42305844078259824403E+00
    0.40339714105044688353E+00
    0.41402308527537468041E+00
    0.36457957089402354134E+00
    0.28336107102141566694E+00
    0.31797173845657028535E+00
    0.21503709953070762606E+00
    0.25216292724440136919E+00
    0.17776710834470646483E+00
    0.13271579690722670741E+00
    0.70663720752260447688E-01
    0.95301402723324796229E-01
    0.54553073859753220543E-01
    0.40267018801403674233E-01
    0.26055931026428561653E-01
    0.30320681061683521507E-01
    0.20821913874616945761E-01
    0.23000475733714977056E-01
    0.24056495783724339554E-01
    0.19385539421946779842E-01
    0.34191582317992019746E-01
    0.28324667303629820492E-01
    0.38640602190425601958E-01
    0.41939454900507419643E-01
    0.53428110756797805858E-01
    0.47415622905538870602E-01
    0.55455697902867126525E-01
    0.55529860565356636837E-01
    0.66642379828714654044E-01
    0.56940280192422344785E-01
    0.60133806980445597690E-01
    0.59685532448273417860E-01
    0.54410703738060645085E-01
    0.46635675521193645232E-01
    0.49861856378087321406E-01
    0.36302476138062228506E-01
    0.42116356279903691129E-01
    0.30432520403420152549E-01
    0.23587720987993100047E-01
    0.13326061845808727033E-01
    0.17715293307180978583E-01
    0.10251747639947222240E-01
    0.71893443226352399950E-02
    0.32124868610303178654E-02
    0.46080035909698401769E-02
    0.17976817724220193334E-02
    0.24079321510562844491E-02
    0.13042381085607446939E-02
    0.86318405622233139105E-03
    0.33829930159933276936E-03
    0.52501771698021035533E-03
    0.23972249421736266514E-03
    0.16441893498266368988E-03
    0.91857611790945498153E-04
    0.11235398329218851681E-03
    0.69904446301949065218E-04
    0.74608647755003743604E-04
    0.77128430971060648225E-04
    0.62108258616294960007E-04
    0.11243883474498915130E-03
    0.92492237830960174951E-04
    0.12861886272799629566E-03
    0.14279133535918087745E-03
    0.19766076711882113091E-03
    0.16914785962024989942E-03
    0.21222433283830415191E-03
    0.22038492713928438198E-03
    0.30360119350177907586E-03
    0.23586304749464228085E-03
    0.27249771864600697783E-03
    0.28620221623155408727E-03
    0.29983546511800832210E-03
    0.36877656193731636180E-03
    0.33377287777446788646E-03
    0.38378006687247290642E-03
    0.38872780885124114635E-03
    0.35977414765945843304E-03
    0.32340173033371024530E-03
    0.25616243408587948327E-03
    0.28705941101386383022E-03
    0.22656482034397049585E-03
    0.18315703340781138353E-03
    0.12040025429042403048E-03
    0.14130020962280556967E-03
    0.90667519556586343224E-04
    0.10492087771330778747E-03
    0.71785943325315963899E-04
    0.52992996598174526462E-04
    0.29628709812705257619E-04
    0.38256348571722898649E-04
    0.23661723368727560676E-04
    0.18246891585824373143E-04
    0.12954873300087841942E-04
    0.14141794061105821749E-04
    0.10453593231836268713E-04
    0.15963584729933868404E-02
    0.16267462580957891931E-02
    0.13353530744291048672E-02
    0.22504823964114347573E-02
    0.19072373329463584123E-02
    0.24905768098353346304E-02
    0.25939099736000991239E-02
    0.29992314881840849428E-02
    0.27463671105595549929E-02
    0.30780327438223375677E-02
    0.29138356739306283533E-02
    0.32638852076793782586E-02
    0.29180601277345695477E-02
    0.29368361316580065060E-02
    0.28852216191603023351E-02
    0.27918333915473237186E-02
    0.25335493198070267382E-02
    0.26168432911812802497E-02
    0.21452671414570537167E-02
    0.23794236832578282217E-02
    0.18378090276300331710E-02
    0.14777358558901701382E-02
    0.91904965250816784798E-03
    0.11575230236408663199E-02
    0.73591985510980417219E-03
    0.53765348254422628063E-03
    0.27423469833406504412E-03
    0.36514522481835603096E-03
    0.17118258866529270125E-03
    0.21696521996152854511E-03
    0.13113611385622922652E-03
    0.93118969893419970604E-04
    0.43388647627406779113E-04
    0.61404564770858535445E-04
    0.32333527650064554739E-04
    0.23038881629620787839E-04
    0.14094948923823955587E-04
    0.16527436750683483641E-04
    0.10978081198335733112E-04
    0.46547460696352194187E+00
    0.87848350275578712676E+00
    0.46711116161340532349E+00
    0.64354887964307672110E+00
    0.60338742607064710377E+00
    0.81977034145161464807E+00
    0.33723059379254416434E+00
    0.20222375630522951284E+00
    0.15354549688465474189E+00
    0.15429389697764248068E+00
    0.21950369932567642683E+00
    0.27099234353767537309E+00
    0.42089008433539742970E-01
    0.14825047829149430589E-01
    0.13462574341012494006E-01
    0.36090547990960245017E-01
    0.20372636996610127280E-01
    0.25985873019292133473E-01
    0.23858122286498195663E+01
    0.14324747094081289323E+01
    0.18881658679479786933E+01
    0.12664240135848803259E+01
    0.14854816710645422084E+01
    0.19768803087085191628E+01
    0.11185233553533872539E-01
    0.10765264657418248395E-01
    0.49725203361115407480E-02
    0.67558481453048168514E-02
    0.66788776401298290825E-02
    0.12316161415646403529E-01
    0.18785054690856637372E+01
    0.16011176165345240019E+01
    0.25899356136482580837E+01
    0.15722306707387998514E+01
    0.20852242532992533164E+01
    0.22505664715985509439E+01
    0.15988330892342057510E+01
    0.24420036135789857656E+00
    0.21472463849881406883E+00
    0.42036547699581672255E+00
    0.30089836029538463702E+00
    0.20230648652677421517E+00
    0.33392981038807262317E+00
    0.20853368594581717099E+00
    0.13779080253305420883E-01
    0.11842464835488938912E-01
    0.82906374639495593326E-02
    0.13909578542497332346E-01
    0.92378856068956703707E-02
    0.64758613072835808158E-02
    0.20633623055942129643E-01
    0.36562882823556276668E-01
    0.27649989897170358655E-01
    0.23557702535305001523E-01
    0.44435639179293440204E-01
    0.35330088876172831280E-01
    0.23486253170661698653E-01
    0.23819299315374846404E-01
    0.32446669927316540427E-01
    0.14323091840390551888E-01
    0.33357244042938098694E-01
    0.16615170149762215068E-01
    0.20010019381128903160E-01
    0.25261788918488682111E-02
    0.17897289841499973689E-02
    0.93798420788304085610E-03
    0.24852294934066911959E-02
    0.16419772394054310029E-02
    0.10331172223635282613E-02
    0.12420651731037332666E-02
    0.39106549031918730330E+00
    0.31231405548733848221E+00
    0.19228395456353145065E+00
    0.40305100923502279464E+00
    0.28158330548549209693E+00
    0.20145451767472444260E+00
    0.23823522845204231357E+00
    0.38178360060355236594E-03
    0.39742753638507053024E-03
    0.16927403601422506894E-03
    0.48871104782451807187E-03
    0.23648803528147454948E-03
    0.16075272327407841440E-03
    0.26611982280399127266E-03
    0.11735164055172868647E+01
    0.18251276992962139900E+01
    0.16312014908775422928E+01
    0.10451803005907986943E+01
    0.14250385972005965574E+01
    0.11276435573968972559E+01
    0.47503641168428500929E+00
    0.23978990490071402930E+00
    0.42474731499266099588E+00
    0.33104143577847555679E+00
    0.24242416292836890812E+00
    0.30631104891388732936E+00
    0.10492942197967251861E+00
    0.70379535912752116955E-01
    0.14051902080839379083E+00
    0.14151647032596675890E+00
    0.92521186955728668133E-01
    0.81879590396635976157E-01
    0.26779100123535499664E-02
    0.32427871386847568341E-02
    0.21007158347175511164E-02
    0.43871950818924702192E-02
    0.37854695524809642629E-02
    0.23735335699687429289E-02
    0.21073015527125910085E+00
    0.37359576313549974769E+00
    0.46290088046788291365E+00
    0.21169770962594239294E+00
    0.27349673428555348886E+00
    0.43975289252672594698E+00
    0.30693860189865618260E+00
    0.24671237315010731417E-01
    0.18396063638255459594E-01
    0.38500609511704433907E-01
    0.16047206288614453140E-01
    0.33081907303359879557E-01
    0.25899719579276142545E+00
    0.29321419048559316245E+00
    0.22779136104587477396E+00
    0.35226767466556180297E+00
    0.35830262349070490790E+00
    0.21436272716055465581E+00
    0.16878241006847712058E-01
    0.41433279625700238091E-01
    0.21755838844071929972E-01
    0.26618566972245495672E-01
    0.17250753992223973737E-01
    0.35104934195248689577E-01
    0.18135773324375283888E+01
    0.11891756133536857121E+01
    0.11209149842865857583E+01
    0.12817079322188555945E+01
    0.14792307781158862134E+01
    0.11341214553404235232E+01
    0.16228747520987720776E+01
    0.20883621402369616574E-02
    0.58208104393946379085E-02
    0.24496450631249794966E-02
    0.37156298392533411087E-02
    0.20101717906439164896E-02
    0.45521630259295854312E-02
    0.10995852979162592990E-02
    0.10672533146685418692E-02
    0.17820116888365503116E-02
    0.16860340210127964210E-02
    0.21913417283931689930E-02
    0.89828977492784956894E-03
    0.33173836357369537176E+01
    0.23358088528284666197E+01
    0.29274010373010974639E+01
    0.32121752440649613547E+01
    0.24916151400587018827E+01
    0.27470508764333869678E+01
    0.65666456454460300773E-01
    0.14232055817185218505E+00
    0.15321345949517525820E+00
    0.84576727234756260421E-01
    0.97952592384237840983E-01
    0.23642121202640892230E+00
    0.22711110136774126378E+00
    0.19541473805388157037E+00
    0.18443447302229692975E+00
    0.30148985649368087447E+00
    0.28048684890662689551E+00
    0.14565149251996061253E+01
    0.91172980987297969069E+00
    0.13377417433474749764E+01
    0.11947751376869377715E+01
    0.10598613451641456518E+01
    0.15753806835731574143E+01
    0.10418828868317875358E+01
    0.22899916959551985807E-01
    0.20735150202426260585E-01
    0.19010184428181399474E-01
    0.36165500392114607875E-01
    0.33478914144999594171E-01
    0.34887023815750352329E-01
    0.31115253230325642941E-01
    0.24097332732203213812E-01
    0.42847939333636897441E-01
    0.21930819175244635477E-01
    0.77746610881377579277E-03
    0.75494997937700005636E-03
    0.20744595832234485541E-02
    0.21114725603768461429E-02
    0.12923881534765524308E-02
    0.13331393115558034038E-02
    0.47261355854568498636E+00
    0.87955539897538626004E+00
    0.41491116991303472750E+00
    0.51666458156272176971E+00
    0.64117082748320386454E+00
    0.70646418482900941171E+00
    0.44810737491437063751E+00
    0.40035176905660416896E-02
    0.94928994181207385084E-02
    0.43646097384750903031E-02
    0.11004141866042871367E-01
    0.58412185403626856045E-02
    0.11413532203897956349E-01
    0.75325128837279865107E-02
    0.59274294568310251230E-01
    0.11178684430249427595E+00
    0.69998724723075084198E-01
    0.76990371329456352978E-01
    0.10671120294041229470E+00
    0.12876147248613700746E+00
    0.35055667354077240105E+01
    0.36642494400095801943E+01
    0.33396614496371452852E+01
    0.31696774693600566764E+01
    0.35665784046160826648E+01
    0.33175719156941663179E+01
    0.33921199469789140579E+01
    0.14350088108873834854E-02
    0.49120407342977633319E-03
    0.12226770794751512083E-02
    0.11804958635875891816E-02
    0.75890330860559909124E-03
    0.13645774956251876565E-02
    0.71115156986115450263E-03
    0.16578823810487645224E-01
    0.59936633711325185830E-02
    0.13008915990845897753E-01
    0.60925667479719081490E-02
    0.87864133483732450441E-02
    0.97649383970326245757E-02
    0.14852573297687280199E-01
    0.91282259728410336530E-01
    0.37371568974888400017E-01
    0.47496057281450843046E-01
    0.94376733627819869854E-01
    0.38351945674674939313E-01
    0.67375161147313761267E-01
    0.58823108218048647533E-01
    0.22396063151491218957E+00
    0.10468918222955925224E+00
    0.22460528024937642666E+00
    0.17585510037246479542E+00
    0.14907731096702925289E+00
    0.22671921008400233721E+00
    0.12719197008061203236E+00
    0.37697467387635512359E-02
    0.25404831632596255007E-02
    0.58057932709112839223E-02
    0.32127642684312042454E-02
    0.27391437592533453976E-02
    0.46525369093126326542E-02
    0.25374392864847029883E-02
    0.52909056299139372442E-02
    0.47364246057212222585E+00
    0.31379618722761448701E+00
    0.63066925403713547382E+00
    0.35337878715489490222E+00
    0.37289704412514468324E+00
    0.47332124673889119926E+00
    0.34144388547287818358E+00
    0.58689426199670280404E+00
    0.74502703074034982121E-03
    0.25757003203946601247E-03
    0.48026939260235770694E-03
    0.32589766141871939591E-03
    0.54945259811434122785E-03
    0.32709934776262991141E-03
    0.62321336510035105910E-03
    0.36598304857198720764E-03
    0.16081585138011763496E-03
    0.43578741946198346503E-03
    0.18919624824974691328E-03
    0.25927942983637147474E-03
    0.31057657818202039773E-03
    0.19872284103670027032E-03
    0.45589729795966781913E-03
    0.69555960677131556391E+00
    0.89518770899199373581E+00
    0.76646200403179831628E+00
    0.10233026835683773914E+01
    0.69008000120443968584E+00
    0.10756037826674091917E+01
    0.71585651848950285214E-01
    0.16578822141242413601E+00
    0.90191599239103206753E-01
    0.84247315808681458305E-01
    0.14109283113549109245E+00
    0.12520875711995002599E+00
    0.27688762000354874560E-01
    0.20361134505073985590E-01
    0.27990250871766968882E-01
    0.13943410284053214809E-01
    0.19854804692976436853E-01
    0.15620014011326788239E-01
    0.28001416494330202966E-01
    0.13183725254917280090E+01
    0.10822514756078680520E+01
    0.83263044417253617713E+00
    0.84724771810265786520E+00
    0.10431712410615856523E+01
    0.13604352100691188276E+01
    0.76403350801522273983E+00
    0.47883853223564731838E+00
    0.59651603438202627228E+00
    0.40325525693628128110E+00
    0.31406481445147493847E+00
    0.28798895962339221555E+00
    0.51366353665306574428E+00
    0.34590219890191087337E+00
    0.37748926768865387338E+00
    0.33067281528816518804E-02
    0.41661800297915427271E-02
    0.52363584929385397979E-02
    0.61405830325066846492E-02
    0.62793644657878500831E-02
    0.33245921585364356272E-02
    0.40568961421730900807E-02
    0.16531746184390508228E-03
    0.21032217134901747728E-03
    0.29163323213685402816E-03
    0.34074839112453584634E-03
    0.37507899831026452224E-03
    0.16467335279912861598E-03
    0.20967404884134123477E-03
    0.44790296525113584836E-01
    0.55546439854243831458E-01
    0.68240047294694336499E-01
    0.82994151621918157979E-01
    0.88237635951422310754E-01
    0.45533516897417032621E-01
    0.52722408011420460183E-01
    0.27314892885353608636E-04
    0.39005127071564232302E-04
    0.44704495056567948477E-04
    0.62511544155897342070E-04
    0.56311735289102401547E-04
    0.32354970564497527430E-04
    0.29489717686231023050E-04
    0.34945759491126368590E-01
    0.20016609858976717323E-01
    0.23278482656430867642E-01
    0.25580509447787978111E-01
    0.43771866948784494966E-01
    0.34638949545594502344E-01
    0.48089227226904326939E-01
    0.53740886666849696507E+00
    0.58479899696256310015E+00
    0.74268634425220769746E+00
    0.53791430567734810353E+00
    0.67445040752969831477E+00
    0.89243312750835279701E+00
    0.86871560630175026496E+00
    0.24831914732725145385E-02
    0.15367788989918891064E-02
    0.19712714178455720791E-02
    0.18389897155707101827E-02
    0.33585714508696314258E-02
    0.30291711895573864878E-02
    0.40650767283687775505E-02
    0.62453843958057636901E-03
    0.46555590469460317836E-03
    0.65440607272699105081E-03
    0.87907236905841984031E-03
    0.48020770705921355173E-03
    0.93328306005228153612E-03
    0.34786242451081833549E-02
    0.28820047520300398798E-02
    0.63623365354379610159E-02
    0.40636852649205603555E-02
    0.58059526302688315574E-02
    0.45187189999168625443E-02
    0.57291057328104745897E-02
    0.28716103955021823543E-02
    0.10731769264020291077E+00
    0.65838420974880823566E-01
    0.10574613342537737826E+00
    0.68041668412787567610E-01
    0.13775983232290608949E+00
    0.12334897401879285628E+00
    0.81049031882313535280E-01
    0.82887566979929577782E-01
    0.45041225860912315060E+00
    0.44639022025583885434E+00
    0.81783410474959439274E+00
    0.55869994058241156942E+00
    0.69010540457291658090E+00
    0.52030978444470332711E+00
    0.70981902038438360325E+00
    0.42667676630500650514E+00
    0.87560740898794890263E-03
    0.22320809055392429841E-02
    0.10988405162096631391E-02
    0.28589889915268617247E-02
    0.21790242654882636432E-02
    0.15761191178535619364E-02
    0.12115448943450155255E-02
    0.24867617577391265549E+01
    0.32179634509463963532E+01
    0.33719811171839202402E+01
    0.26684111746274954413E+01
    0.29981831323653693744E+01
    0.24808668284685291283E+01
    0.28411394524376185622E+01
    0.35829804590454483737E-01
    0.36787727924097263221E-01
    0.74620678503968113082E-01
    0.54580775892977835551E-01
    0.75985905079556159691E-01
    0.54071161790669008962E-01
    0.32405701750652417259E-01
    0.23818992981387870911E-01
    0.12337994970454343319E-01
    0.12373869846954994867E-01
    0.18588098470438373100E-01
    0.17487936037662105138E-01
    0.93183586528047535058E-02
    0.95067676140066278284E-02
    0.12082931717916980396E+01
    0.15982217915726457669E+01
    0.13667298986239044822E+01
    0.10137181611266066206E+01
    0.10016920009151653037E+01
    0.11869132299969233600E-02
    0.22793523120320019135E-02
    0.19548774447269638525E-02
    0.27071419722861063753E-02
    0.15664373794234756621E-02
    0.10721409923546317000E-02
    0.13445799183832424228E+00
    0.13955275160384067457E+00
    0.27731348570652308849E+00
    0.27076060140255664432E+00
    0.19815471165950038213E+00
    0.18923104142550833950E+00
    0.15792805135045961951E+00
    0.81415474093674125577E-01
    0.11484514566597453511E+00
    0.74182642351517349977E-01
    0.13838679485824323390E+00
    0.94070559492607397356E-01
    0.12468326688979733952E+01
    0.13953202566241906801E+01
    0.19745056523250967828E+01
    0.22563173116651933370E+01
    0.18414877331627861334E+01
    0.13078962011580554936E+01
    0.15362723931988160331E+01
    0.37552597777325452677E+00
    0.57957717793315999266E+00
    0.60776380273059826820E+00
    0.78569395512889461664E+00
    0.43813839402899368292E+00
    0.45839836908620001932E+00
    0.70800855064401391203E+00
    0.11366566774462411038E+00
    0.53063595277250769078E-01
    0.74085561098103616673E-01
    0.12961387544209862499E+00
    0.61687350774133051234E-01
    0.99114673312275414219E-01
    0.70449221891006719165E-01
    0.16811924524957150284E+00
    0.15117266043908067497E+00
    0.95386737194739390500E-01
    0.12640671555889215760E+00
    0.83454191312866368713E-01
    0.35667671428122815769E+00
    0.50240013611759737344E+00
    0.44759096174953838521E+00
    0.27471967197540103633E+00
    0.31903869663526274181E+00
    0.36490966934052482262E+00
    0.56503492414951328460E+00
    0.40274800066807636689E+00
    0.68843636432087873533E+00
    0.48317184559299053426E+00
    0.10815101112841264686E-01
    0.43875117622980443211E-02
    0.10028272779152313382E-01
    0.54394747365891088497E-02
    0.71282368736277834306E-02
    0.30586293001883847753E-03