# vtk DataFile Version 3.0
LAPLACIEN  2D
ASCII
DATASET UNSTRUCTURED_GRID
 POINTS        1516  float
  0.50009042000000004       0.49685350000000000        0.0000000000000000     
  0.29280878999999999       0.29407436999999997        0.0000000000000000     
  0.70955009000000002       0.70981006000000002        0.0000000000000000     
  0.71064956000000001       0.28967123000000000        0.0000000000000000     
  0.29473250000000001       0.70698041000000000        0.0000000000000000     
  0.49601276000000000       0.22409197000000000        0.0000000000000000     
  0.77973824999999997       0.50582700000000003        0.0000000000000000     
  0.50014395000000000       0.77701156000000005        0.0000000000000000     
  0.21266830000000000       0.50501266000000000        0.0000000000000000     
  0.16932810000000001       0.17543417000000000        0.0000000000000000     
  0.83168655999999996       0.82924503999999999        0.0000000000000000     
  0.82924503999999999       0.16831344000000001        0.0000000000000000     
  0.17075496000000001       0.83168655999999996        0.0000000000000000     
  0.43578920999999998       0.35833240000000000        0.0000000000000000     
  0.63948273000000000       0.56478775000000003        0.0000000000000000     
  0.35985096999999999       0.57093028000000001        0.0000000000000000     
  0.64300122000000004       0.84590626000000002        0.0000000000000000     
  0.36015138000000002       0.15358537999999999        0.0000000000000000     
  0.15671948999999999       0.35773458000000002        0.0000000000000000     
  0.84537978000000003       0.35577354999999999        0.0000000000000000     
  0.84542673999999995       0.64164620999999999        0.0000000000000000     
  0.64055245000000005       0.15487635000000000        0.0000000000000000     
  0.15446998000000001       0.64131327000000005        0.0000000000000000     
  0.35842743999999999       0.84538767000000004        0.0000000000000000     
  0.58036399000000005       0.36898788999999999        0.0000000000000000     
  0.52327071999999997       0.64341464999999998        0.0000000000000000     
  0.31984948000000002       0.41684040999999999        0.0000000000000000     
  0.69367761999999999       0.41687254000000001        0.0000000000000000     
  0.41047932999999998       0.70473459000000005        0.0000000000000000     
  0.59195732000000001       0.71927012999999995        0.0000000000000000     
  0.53714998999999997       0.89042226999999996        0.0000000000000000     
  0.46664006000000002       0.10974356000000000        0.0000000000000000     
  0.11153861000000000       0.46621057999999999        0.0000000000000000     
  0.89063848000000001       0.47218395000000002        0.0000000000000000     
  0.60005439999999999       0.26940141000000001        0.0000000000000000     
  0.73651323999999996       0.88555899999999999        0.0000000000000000     
  0.10609679000000000       0.25238258000000002        0.0000000000000000     
  0.26338917000000001       0.11470150000000000        0.0000000000000000     
  0.88529849999999999       0.26338917000000001        0.0000000000000000     
  0.88841183999999995       0.74176089000000001        0.0000000000000000     
  0.74176089000000001       0.11158816000000001        0.0000000000000000     
  0.11302384000000000       0.73767143999999996        0.0000000000000000     
  0.25846910000000001       0.88837984999999997        0.0000000000000000     
  0.39276481000000002       0.26026133000000001        0.0000000000000000     
  0.74379393000000005       0.60539953999999996        0.0000000000000000     
  0.25867135000000002       0.59958257000000004        0.0000000000000000     
  0.60022043000000003       0.47483159000000003        0.0000000000000000     
  0.40146807000000001       0.47172984000000001        0.0000000000000000     
   9.3979599999999996E-002   9.1864650000000006E-002   0.0000000000000000     
  0.90646658000000002       0.90547398000000001        0.0000000000000000     
  0.90547398000000001        9.3533420000000006E-002   0.0000000000000000     
   9.4526020000000002E-002  0.90646658000000002        0.0000000000000000     
  0.90603352000000004       0.55945769999999995        0.0000000000000000     
  0.55945769999999995        9.3966480000000005E-002   0.0000000000000000     
   9.3966480000000005E-002  0.55945769999999995        0.0000000000000000     
  0.43965862000000000       0.91008893999999996        0.0000000000000000     
  0.73936985000000000       0.79939687999999998        0.0000000000000000     
  0.25808609999999998       0.20225058000000001        0.0000000000000000     
  0.79950997999999995       0.26050676000000000        0.0000000000000000     
  0.20903700000000000       0.74602950000000001        0.0000000000000000     
  0.51019912999999995       0.30785683000000003        0.0000000000000000     
  0.19709441000000000       0.27813728999999998        0.0000000000000000     
  0.79397943000000004       0.71362444000000003        0.0000000000000000     
  0.72077237999999999       0.20857416000000001        0.0000000000000000     
  0.28232308000000000       0.79784562999999997        0.0000000000000000     
  0.45002842999999998       0.58041003000000002        0.0000000000000000     
  0.24206887999999999       0.36539011999999998        0.0000000000000000     
  0.50240527000000001       0.40874115999999999        0.0000000000000000     
  0.69787266000000003       0.49744363000000003        0.0000000000000000     
  0.63652279000000000       0.65338169999999995        0.0000000000000000     
  0.30678966000000002       0.50330836999999995        0.0000000000000000     
  0.55804538000000004       0.56013272999999997        0.0000000000000000     
  0.78473908000000003       0.41906125999999999        0.0000000000000000     
  0.41681289999999999       0.78327389999999997        0.0000000000000000     
  0.81702944000000000       0.91636123000000003        0.0000000000000000     
   8.0601590000000001E-002  0.18517997000000000        0.0000000000000000     
  0.17956701000000000        7.8926839999999998E-002   0.0000000000000000     
  0.91636123000000003       0.18297056000000000        0.0000000000000000     
  0.92078210999999999       0.81543562000000003        0.0000000000000000     
  0.81543562000000003        7.9217889999999999E-002   0.0000000000000000     
   8.3638770000000001E-002  0.81702944000000000        0.0000000000000000     
  0.18456438000000000       0.92078210999999999        0.0000000000000000     
  0.34185365000000001       0.64907157000000004        0.0000000000000000     
  0.60712305000000000       0.92404640999999998        0.0000000000000000     
   7.9494029999999993E-002  0.39634058999999999        0.0000000000000000     
  0.39040704999999998        7.7871659999999995E-002   0.0000000000000000     
  0.92574208999999996       0.38712774999999999        0.0000000000000000     
  0.35207945000000002       0.34021172999999999        0.0000000000000000     
  0.92316257999999995       0.65621616999999999        0.0000000000000000     
  0.65621616999999999        7.6837420000000003E-002   0.0000000000000000     
   7.7592490000000000E-002  0.65548313999999996        0.0000000000000000     
  0.34378383000000001       0.92316257999999995        0.0000000000000000     
  0.65763702000000002       0.76498270000000002        0.0000000000000000     
  0.57502123000000005       0.79886235000000005        0.0000000000000000     
  0.82488251999999995       0.56973017999999997        0.0000000000000000     
  0.56350595999999997       0.17262927000000000        0.0000000000000000     
  0.17499060000000000       0.56978097999999999        0.0000000000000000     
  0.76449263000000001       0.34243157000000002        0.0000000000000000     
  0.19019549999999999       0.42526652999999998        0.0000000000000000     
  0.42831627000000000       0.18065569000000001        0.0000000000000000     
  0.65841015000000003       0.34563083000000000        0.0000000000000000     
  0.48887922000000000       0.70804370999999999        0.0000000000000000     
  0.34753611000000001       0.76148972000000004        0.0000000000000000     
  0.21891395999999999       0.66679798000000001        0.0000000000000000     
  0.33297661000000001       0.21824681000000001        0.0000000000000000     
  0.67975847000000000       0.93479042000000001        0.0000000000000000     
   6.3727629999999993E-002  0.32131759999999998        0.0000000000000000     
  0.32762195000000000        6.8773239999999999E-002   0.0000000000000000     
  0.93136578000000003       0.32807139000000002        0.0000000000000000     
  0.64698155999999996       0.21061173999999999        0.0000000000000000     
  0.45602714999999999       0.83776974000000004        0.0000000000000000     
  0.39129820999999998       0.41222850999999999        0.0000000000000000     
  0.25746412000000002       0.44439139999999999        0.0000000000000000     
  0.44813239999999999       0.63793893000000002        0.0000000000000000     
  0.46747592999999998       0.27117379000000003        0.0000000000000000     
  0.58952952999999997       0.62779850000000004        0.0000000000000000     
  0.76356464999999996       0.66166265999999996        0.0000000000000000     
  0.63507016000000005       0.42228151000000003        0.0000000000000000     
  0.94023380000000001       0.50617835000000000        0.0000000000000000     
  0.50565035999999997        5.9802580000000001E-002   0.0000000000000000     
  0.49453327000000002       0.93969469000000005        0.0000000000000000     
   5.9973539999999999E-002  0.50560945999999996        0.0000000000000000     
  0.40175032999999999       0.60553997999999998        0.0000000000000000     
  0.83933382999999995       0.41297020000000001        0.0000000000000000     
  0.44672879999999998       0.43017311000000003        0.0000000000000000     
[...]
 CELL_DATA        1439
 SCALARS U float
 LOOKUP_TABLE default
    0.18547108651653276996E-02
    0.25103203808849030437E-01
    0.90689903714434488336E-04
    0.14725248161922847227E-04
    0.28273158605268237931E-02
    0.34103822665106989231E-02
    0.22102841967503749666E-02
    0.68477806517886190968E-02
    0.47958237790209912177E-02
    0.95135358280537575537E-02
    0.14083413301013505275E-01
    0.28959053742035677920E-01
    0.21325002979667759262E-01
    0.37474256592664761945E-01
    0.50151155420613602320E-01
    0.85848248006854699366E-01
    0.65881497569857699892E-01
    0.96581300765260127972E-01
    0.12228475660823184823E+00
    0.16988198525361236646E+00
    0.28748682882628440183E+00
    0.22961301984874460391E+00
    0.37951816512043379248E+00
    0.33160096339112021813E+00
    0.40711034569793647098E+00
    0.42388375213310225398E+00
    0.46827621797222007682E+00
    0.44750194922962061028E+00
    0.45934161189057010066E+00
    0.40922211416715081889E+00
    0.32356288017608691998E+00
    0.36070443773233729079E+00
    0.24955828179613354090E+00
    0.28977888726418371546E+00
    0.20928215657856685805E+00
    0.15947952797450531959E+00
    0.88395825742158623539E-01
    0.11695754247826745109E+00
    0.69354325282843243272E-01
    0.52268044273640110187E-01
    0.35128138900971245251E-01
    0.40364629901277648827E-01
    0.28658617679486041163E-01
    0.31255722777711970883E-01
    0.32515098694132070489E-01
    0.26846911338551122245E-01
    0.44621747083439085302E-01
    0.37578606790295121520E-01
    0.49933959273454064931E-01
    0.53801614960370461316E-01
    0.67038248363401442553E-01
    0.60159200234900983562E-01
    0.69348378736378085696E-01
    0.69487439587866461910E-01
    0.82089486972270475640E-01
    0.71181846261276868204E-01
    0.75035886985121702519E-01
    0.74794044520322400249E-01
    0.68604710196563570279E-01
    0.58839328845151077363E-01
    0.62932814307031709200E-01
    0.46403217807406860196E-01
    0.53345370252139742706E-01
    0.39393070049571363156E-01
    0.31085258764984642632E-01
    0.18125533473727587636E-01
    0.23737398733491371638E-01
    0.14138580877058102778E-01
    0.10078573443781563973E-01
    0.46208656314459892883E-02
    0.65523779172428518389E-02
    0.26427849658781097167E-02
    0.35010040486032865947E-02
    0.19371731247489103536E-02
    0.12979210315153910486E-02
    0.51472735022108930501E-03
    0.79432174054685665207E-03
    0.36703346817465746978E-03
    0.25370155711044035636E-03
    0.14332372800363493812E-03
    0.17449675596215502094E-03
    0.10994463961390359250E-03
    0.11608577384638558224E-03
    0.11962655515291636336E-03
    0.97777636793479420210E-04
    0.17138045872759849822E-03
    0.14229449078486679746E-03
    0.19514770877753352500E-03
    0.21612632534295545417E-03
    0.29609968186051572117E-03
    0.25519882389118329598E-03
    0.31722955379815916729E-03
    0.32993269362644958315E-03
    0.45187271582039555216E-03
    0.35313052515766437311E-03
    0.40746604833175644866E-03
    0.42800097082171961347E-03
    0.44914662706674833830E-03
    0.55068828601407106629E-03
    0.50052787968411847734E-03
    0.57169355197028020894E-03
    0.57979263123540051954E-03
    0.53728410963003764723E-03
    0.48693938066242414310E-03
    0.38761528765013245415E-03
    0.43380132040151596308E-03
    0.34408223465038376230E-03
    0.28023290414298134606E-03
    0.18462284158418798075E-03
    0.21647093793634975510E-03
    0.14001300688409195911E-03
    0.16111357228989158343E-03
    0.11104452020888745765E-03
    0.82341756562613816536E-04
    0.45813894645226136814E-04
    0.59293621453510427042E-04
    0.36613945147379628096E-04
    0.28399343852983562352E-04
    0.20255555358395980846E-04
    0.22070154044709619419E-04
    0.16485543340813844557E-04
    0.23289385078869512605E-02
    0.23676904482814427680E-02
    0.19774792247854193136E-02
    0.32012564137192706278E-02
    0.27444804231184461926E-02
    0.35271573000875801676E-02
    0.36780047141922048506E-02
    0.42266781809365654154E-02
    0.38903563733833309603E-02
    0.43197412034661625269E-02
    0.40852398574761032007E-02
    0.45451278747550187889E-02
    0.40914291234423099189E-02
    0.41186033383833857424E-02
    0.40537549988602823714E-02
    0.39383656037045777429E-02
    0.35816128899580539427E-02
    0.37001029995161671335E-02
    0.30442208556916696902E-02
    0.33675172968542638197E-02
    0.26236130120321399413E-02
    0.21324056303687389559E-02
    0.13407863767750602142E-02
    0.16804495962200079184E-02
    0.10799386162415741675E-02
    0.79604494417985266659E-03
    0.40893498079181995076E-03
    0.54252609735648343273E-03
    0.25790347588844093202E-03
    0.32492864328712971764E-03
    0.19845071277762026422E-03
    0.14212388405566165131E-03
    0.66482613489219106605E-04
    0.93830135233439058615E-04
    0.49728086675467336047E-04
    0.35700276386564744704E-04
    0.22019884745532709934E-04
    0.25713585456837085750E-04
    0.17288126311760280637E-04
    0.49073783632331724469E+00
    0.88790163493664164829E+00
    0.49178052042698211510E+00
    0.66268307517697477849E+00
    0.62394212066118259763E+00
    0.83093969783042109789E+00
    0.36196304290214886823E+00
    0.22361450771089935730E+00
    0.17199080407342931531E+00
    0.17338625334931231925E+00
    0.23958838313454564051E+00
    0.29393323057177822566E+00
    0.52225317666381831927E-01
    0.19260008768491460041E-01
    0.17576679499881599222E-01
    0.45164793214547388489E-01
    0.25999954789899644425E-01
    0.32753961299834669085E-01
    0.22580821946508677911E+01
    0.14071561294184535829E+01
    0.18221705763455733340E+01
    0.12522502398303929638E+01
    0.14582734529799521450E+01
    0.18986924292595517283E+01
    0.14857639321614976580E-01
    0.14354888500626258874E-01
    0.68573000803459670596E-02
    0.92053378059565420244E-02
    0.91069925288554086362E-02
    0.16309541766614414626E-01
    0.18133556551259091272E+01
    0.15588172573278193944E+01
    0.24273957701250883368E+01
    0.15321450222399692898E+01
    0.19911852522078281602E+01
    0.21381688384719077511E+01
    0.15581197803673074720E+01
    0.27095838445638992242E+00
    0.23960538883227538998E+00
    0.44965708783593805187E+00
    0.32766400870214329455E+00
    0.22769919101820035312E+00
    0.36248324927115366245E+00
    0.23464591497501444128E+00
    0.18114279723047754106E-01
    0.15665062277214335251E-01
    0.11188086721428880041E-01
    0.18208466191994315819E-01
    0.12385096743748652895E-01
    0.88067435183375852165E-02
    0.26473844551750308485E-01
    0.45364131803241954100E-01
    0.34935117583025976362E-01
    0.29941211381518111068E-01
    0.54576611538466310303E-01
    0.43943440522374789536E-01
    0.30046239493045315272E-01
    0.29940066877860022077E-01
    0.40109621851418489347E-01
    0.18484192724134384384E-01
    0.41064697173778072492E-01
    0.21254184291993737099E-01
    0.25366224936213162267E-01
    0.35857473682290750758E-02
    0.25748072191514792192E-02
    0.13707813553798767377E-02
    0.35273058456316134547E-02
    0.23657995625089136074E-02
    0.15067878978672322697E-02
    0.18063903276324517165E-02
    0.42281154709683399506E+00
    0.34136036538633013349E+00
    0.21862640086187787314E+00
    0.43320007947168515106E+00
    0.31188934773789522836E+00
    0.22826889710486053531E+00
    0.26620075230640993791E+00
    0.57132155155265019163E-03
    0.59095519102682738180E-03
    0.25520423344845162821E-03
    0.72538424548951405818E-03
    0.35607489713834121568E-03
    0.24249503158057608720E-03
    0.40017708382465580833E-03
    0.11644083084814891293E+01
    0.17573270478441258557E+01
    0.15854493295371452355E+01
    0.10450144153866216534E+01
    0.13964390453637118839E+01
    0.11235283306178016627E+01
    0.50065565156474645114E+00
    0.26483247668908715955E+00
    0.45093019185156868467E+00
    0.35697286704823438797E+00
    0.26767700557638007819E+00
    0.33176087126485576118E+00
    0.12207849317418262292E+00
    0.84131376533881724322E-01
    0.16078632268216719314E+00
    0.16181005954018801152E+00
    0.10848718950289082397E+00
    0.96986397083078212944E-01
    0.37724797309577661267E-02
    0.45582546479483541241E-02
    0.29895623803301569869E-02
    0.60724606973501281740E-02
    0.52504193460601467774E-02
    0.33704475414535321233E-02
    0.23404054875515117873E+00
    0.40276848867359144046E+00
    0.49030740600381184091E+00
    0.23639253473967811181E+00
    0.30066924063399314004E+00
    0.46723448421233598760E+00
    0.33171460530870655603E+00
    0.30822537418559680517E-01
    0.23366817347967396012E-01
    0.47068811760421817858E-01
    0.20529332069447236986E-01
    0.40798011738308798124E-01
    0.28229123601376571173E+00
    0.31654836854081336295E+00
    0.25057472662473556646E+00
    0.37658424572525206475E+00
    0.38236927932357261950E+00
    0.23713058653314919577E+00
    0.22022100445611071662E-01
    0.51597710073007146958E-01
    0.28219241183721672367E-01
    0.33787063492108845852E-01
    0.22615712665761508043E-01
    0.44235257120517346152E-01
    0.17547699371134117818E+01
    0.11873639417225756443E+01
    0.11257530753764324327E+01
    0.12758254539394184857E+01
    0.14560856404641571160E+01
    0.11399080888375718867E+01
    0.15885424508687973066E+01
    0.29517302521018225561E-02
    0.79494727169682616319E-02
    0.34465085762842330441E-02
    0.51612510961234949608E-02
    0.28428881053025427394E-02
    0.62862842150811773165E-02
    0.15976665015050559894E-02
    0.15532630824384896680E-02
    0.25447822946216423941E-02
    0.24087002746791376720E-02
    0.31016953920030608874E-02
    0.13100866429662017844E-02
    0.30446013069638580006E+01
    0.22055664585260901234E+01
    0.27198773633825501506E+01
    0.29609171243376479765E+01
    0.23432183131871711090E+01
    0.25678583193957602582E+01
    0.78606892221247059993E-01
    0.16200116492951904812E+00
    0.17403971660725350845E+00
    0.99340840439491207015E-01
    0.11396993581486607183E+00
    0.25906086856792259754E+00
    0.25060394894118043219E+00
    0.21770534372061095540E+00
    0.20666981726884414705E+00
    0.32575403776855260674E+00
    0.30476068059875294214E+00
    0.14271309837624284178E+01
    0.92412417049770978483E+00
    0.13208372377758270666E+01
    0.11868417874598879980E+01
    0.10628379655001143345E+01
    0.15379083432722089331E+01
    0.10478757611125970595E+01
    0.29317452146138470170E-01
    0.26628298598295768729E-01
    0.24608982756035409356E-01
    0.44964512378722509833E-01
    0.41731271955658150175E-01
    0.43461206854227010798E-01
    0.39026739092316922730E-01
    0.30715424119925970048E-01
    0.52820080630702440083E-01
    0.28050507100748550693E-01
    0.11347933346259045026E-02
    0.11016300943737103793E-02
    0.29541677132676079018E-02
    0.30059127521731968981E-02
    0.18663811100933665708E-02
    0.19288705417218874640E-02
    0.50786311568503561542E+00
    0.89531283604652789343E+00
    0.45070120609556851843E+00
    0.54503287862944616027E+00
    0.66792878665821131534E+00
    0.72809674593744311277E+00
    0.48120809166613154328E+00
    0.54768408049367146850E-02
    0.12566006146258773546E-01
    0.59513154929064374446E-02
    0.14437763586819654660E-01
    0.78713802942531850559E-02
    0.14941766333780966830E-01
    0.10059172742030188935E-01
    0.72325526039776211196E-01
    0.13032644481340288634E+00
    0.84424274931935466837E-01
    0.91781185821005834002E-01
    0.12438034708465481315E+00
    0.14829131778226917193E+00
    0.32094803314419149132E+01
    0.33374994881750486009E+01
    0.30753690319347057880E+01
    0.29306156607501461231E+01
    0.32609411844974616201E+01
    0.30555004322500787239E+01
    0.31163871746446654143E+01
    0.20483597241011987367E-02
    0.72020303594794729887E-03
    0.17653549793439284477E-02
    0.17116145237090190506E-02
    0.11089811450083766030E-02
    0.19613287572592332138E-02
    0.10401087204779889926E-02
    0.21244268410935768232E-01
    0.80837025080194423871E-02
    0.16937847846543917230E-01
    0.81809989209674759819E-02
    0.11633639094345008674E-01
    0.12817558769452343584E-01
    0.19122038378683467452E-01
    0.10680104512868142386E+00
    0.46515306033951236975E-01
    0.57734899792067792546E-01
    0.11073466854205135657E+00
    0.47417841246678554823E-01
    0.79947804502453256870E-01
    0.70854842192470068873E-01
    0.24705622206728714008E+00
    0.12287234955410872295E+00
    0.24944504436532713432E+00
    0.19749626697044281309E+00
    0.17011638119801711366E+00
    0.25047522710050246220E+00
    0.14674129039474592684E+00
    0.52849787927525112771E-02
    0.36503401544517709992E-02
    0.79309348441509650018E-02
    0.45654272559026778944E-02
    0.38923337404848405360E-02
    0.64615671496702394017E-02
    0.36337676271615054410E-02
    0.72809359677830330637E-02
    0.50596208816784016271E+00
    0.34991178164992731148E+00
    0.66146838902997118215E+00
    0.39049235696522477390E+00
    0.40579256561562865313E+00
    0.50841149494110471352E+00
    0.37683585328558866223E+00
    0.61855134546549517260E+00
    0.10824985077374860501E-02
    0.38203196883121015148E-03
    0.70901042495522133800E-03
    0.48139948974882946619E-03
    0.80451034437696578028E-03
    0.48549784312538308510E-03
    0.90945573494408604373E-03
    0.54863388750397436809E-03
    0.24417804623136753553E-03
    0.64411332200320413430E-03
    0.28657718661328210937E-03
    0.39222062728962853433E-03
    0.46618183011694347417E-03
    0.30131611282797681958E-03
    0.67744621702907001359E-03
    0.71396134669822863827E+00
    0.90680005960142018306E+00
    0.78363090771280030644E+00
    0.10285406790080597883E+01
    0.71016332336583787299E+00
    0.10776706755959599704E+01
    0.85735690877467546356E-01
    0.18821961568802611509E+00
    0.10631577362836738820E+00
    0.10010142806259778037E+00
    0.16149860671111668231E+00
    0.14496735557291845486E+00
    0.34780459499842646121E-01
    0.26219121694031365111E-01
    0.35270281546987261589E-01
    0.18256639813345972023E-01
    0.25448809403760423720E-01
    0.20385568968562715886E-01
    0.35140247582735810450E-01
    0.12978258927911483500E+01
    0.10812685860426727302E+01
    0.84655755435908175421E+00
    0.85908857254509851664E+00
    0.10454187983165592613E+01
    0.13392315396657230586E+01
    0.78103168814282997179E+00
    0.50157653249071898482E+00
    0.61823703008546582183E+00
    0.42728064609592808498E+00
    0.33870876547791023414E+00
    0.31333572716839508399E+00
    0.53621053791222006435E+00
    0.37090794796863751914E+00
    0.40147197771909615138E+00
    0.46446671407718524011E-02
    0.57575938298456679626E-02
    0.71989832142064381221E-02
    0.82963406990738657737E-02
    0.85003853847932468041E-02
    0.46518841274175021239E-02
    0.56643095894592012524E-02
    0.25236330971494132496E-03
    0.31814893311343903255E-03
    0.44151296973982741712E-03
    0.50962978274744839650E-03
    0.55977698142470203382E-03
    0.25045862722910627960E-03
    0.32005017318090586828E-03
    0.57414613498622986409E-01
    0.69415963598266794410E-01
    0.84454962696610957895E-01
    0.10057490501855256837E+00
    0.10679725396624156764E+00
    0.58085376743748064199E-01
    0.66784927556004652915E-01
    0.42077165818824590357E-04
    0.60099527734987642444E-04
    0.68623637426661648528E-04
    0.95192582978297234542E-04
    0.85737107802231533491E-04
    0.49828263843882578371E-04
    0.45468831145526628914E-04
    0.44271542814198483473E-01
    0.26273925738932953078E-01
    0.30126061684186668244E-01
    0.33130586574479078954E-01
    0.54401179884972242218E-01
    0.43628809863013387482E-01
    0.59407029385214304984E-01
    0.57230976366852992498E+00
    0.62094619451866783777E+00
    0.77135962926908918647E+00
    0.57553518848710161215E+00
    0.70402173776182142007E+00
    0.91165856514235887875E+00
    0.88661306700057318508E+00
    0.34843507944103484751E-02
    0.21903366469442691819E-02
    0.27822500428275830607E-02
    0.26106748604271885934E-02
    0.46382617340177401122E-02
    0.42082168757952382807E-02
    0.55866164871248248300E-02
    0.92441590542607248761E-03
    0.69419489208013857463E-03
    0.96463411617377287956E-03
    0.12827247360989329529E-02
    0.71473787265133336723E-03
    0.13638511534190809506E-02
    0.48581711756464640573E-02
    0.40421643546886968160E-02
    0.85833289494117795404E-02
    0.56404561809370937220E-02
    0.78646559008923519474E-02
    0.62217947149650638244E-02
    0.78209559387960887050E-02
    0.40207854736602063536E-02
    0.12325374879300447784E+00
    0.77924920733349695157E-01
    0.12098195771260630837E+00
    0.80228171182922802807E-01
    0.15557208645323888918E+00
    0.14009450997786332405E+00
    0.94352321401717093030E-01
    0.96552358180040487312E-01
    0.47409820519886525236E+00
    0.47368699073392162013E+00
    0.83413527107683849149E+00
    0.58312795242245696326E+00
    0.71000345320135627158E+00
    0.54290235103764494795E+00
    0.72896759711368586121E+00
    0.45305573576344504438E+00
    0.12701924846296504951E-02
    0.31637768848927784980E-02
    0.15950904012835805459E-02
    0.40197594554376887832E-02
    0.31004570788551303641E-02
    0.22723719014019075693E-02
    0.17434450451706941590E-02
    0.23381571328983152824E+01
    0.29663407986198819799E+01
    0.30907995258448983655E+01
    0.24982613668250213124E+01
    0.27791514603030034181E+01
    0.23320722448648312231E+01
    0.26480384274518233845E+01
    0.43977610614267012568E-01
    0.45032376776011594222E-01
    0.87504422829991268529E-01
    0.65352581278868476788E-01
    0.89154811305987818892E-01
    0.64497198477071943090E-01
    0.39980357992694212643E-01
    0.30211703571924302530E-01
    0.16206066236615263715E-01
    0.16183505331236386349E-01
    0.23843996887681982721E-01
    0.22459529590607318905E-01
    0.12377873954539162296E-01
    0.12637294843581699591E-01
    0.12005394276345942028E+01
    0.15627397546824621788E+01
    0.13514809291312201989E+01
    0.10216679180489238732E+01
    0.10129777000741668758E+01
    0.17172961537895465190E-02
    0.32339861221200166819E-02
    0.27804977944673892748E-02
    0.38124694564479369267E-02
    0.22544408117900751817E-02
    0.15543342091371425973E-02
    0.15343319013275319440E+00
    0.15892273847441154566E+00
    0.30199041991419017794E+00
    0.29529643833618968163E+00
    0.22040844078433671771E+00
    0.21112243445077402693E+00
    0.17823131077770371089E+00
    0.95640554566117211288E-01
    0.13181639242735887496E+00
    0.87846695434548233150E-01
    0.15756248421226487499E+00
    0.10991575068176467900E+00
    0.12304892738745292213E+01
    0.13703572631359859368E+01
    0.18922951897078690298E+01
    0.21350046743871926580E+01
    0.17745875586735322393E+01
    0.12908092439061435996E+01
    0.15002110505439800736E+01
    0.40344411739858720978E+00
    0.60580208618468200932E+00
    0.63097696997346541803E+00
    0.80328351136046660663E+00
    0.46492681023900239712E+00
    0.48695573910656803074E+00
    0.72956024447898970564E+00
    0.13189444873560784988E+00
    0.64716905769279034488E-01
    0.88285229298094181072E-01
    0.14934521174351583772E+00
    0.74634825606490873273E-01
    0.11624238499098224486E+00
    0.83844635470794945387E-01
    0.18906914677653829937E+00
    0.17143438021855844644E+00
    0.11121263103990322585E+00
    0.14507184527478611535E+00
    0.98371277123171910195E-01
    0.38184659464814507679E+00
    0.52718902391675692698E+00
    0.47317336249972730133E+00
    0.30025108127468713715E+00
    0.34479280838756670713E+00
    0.39035870831484087429E+00
    0.58936677910556467541E+00
    0.42907100149686716595E+00
    0.70855131733194431920E+00
    0.50656048344303539199E+00
    0.14411365324952187320E-01
    0.60821946693611871060E-02
    0.13427812574425945086E-01
    0.74636496161427229312E-02
    0.97010837508953243202E-02
    0.45611649791862257392E-03