# vtk DataFile Version 3.0
LAPLACIEN  2D
ASCII
DATASET UNSTRUCTURED_GRID
 POINTS         391  float
  0.50371505999999999       0.50367786999999997        0.0000000000000000     
  0.29013556000000001       0.29014535000000002        0.0000000000000000     
  0.70165584999999997       0.71206597999999999        0.0000000000000000     
  0.70304188999999995       0.30176619999999998        0.0000000000000000     
  0.30920671999999999       0.71149227999999998        0.0000000000000000     
  0.79044983999999996       0.49884783999999999        0.0000000000000000     
  0.49102621000000002       0.20968644000000000        0.0000000000000000     
  0.49912957000000002       0.77208717000000004        0.0000000000000000     
  0.21724072999999999       0.48989389000000000        0.0000000000000000     
  0.83255933999999998       0.83046598000000005        0.0000000000000000     
  0.16646774000000000       0.17015694000000001        0.0000000000000000     
  0.83054514999999995       0.16736480000000001        0.0000000000000000     
  0.16953130999999999       0.83265739000000005        0.0000000000000000     
  0.42166445000000002       0.36345201999999999        0.0000000000000000     
  0.64462200999999997       0.56347807999999999        0.0000000000000000     
  0.35324633999999999       0.56311191000000005        0.0000000000000000     
  0.65456411000000003       0.84856860999999995        0.0000000000000000     
  0.35141477999999998       0.15563974000000000        0.0000000000000000     
  0.15290967000000000       0.35206625000000003        0.0000000000000000     
  0.82942241000000005       0.34936866000000000        0.0000000000000000     
  0.84390527000000004       0.64441694999999999        0.0000000000000000     
  0.63699174999999997       0.14284276000000001        0.0000000000000000     
  0.15620682999999999       0.64648446999999998        0.0000000000000000     
  0.36426062999999997       0.85756310999999996        0.0000000000000000     
  0.63489340999999999       0.40519052000000000        0.0000000000000000     
  0.52518872999999999       0.65957078000000002        0.0000000000000000     
  0.32158959999999998       0.42298103999999997        0.0000000000000000     
  0.58861710000000000       0.31711036999999997        0.0000000000000000     
  0.42078418000000001       0.69497151999999995        0.0000000000000000     
  0.48608786999999998       0.89334152000000000        0.0000000000000000     
   9.7084320000000002E-002  0.50000000000000000        0.0000000000000000     
  0.90291568000000000       0.50000000000000000        0.0000000000000000     
  0.51392453000000005       0.10668648999999999        0.0000000000000000     
  0.59792566999999996       0.73122754000000001        0.0000000000000000     
  0.74510058999999995       0.41124730999999998        0.0000000000000000     
  0.73212551999999997       0.90191560000000004        0.0000000000000000     
   9.7784830000000003E-002  0.26957329000000002        0.0000000000000000     
  0.26711221000000002        9.8671499999999995E-002   0.0000000000000000     
  0.90191560000000004       0.26787448000000003        0.0000000000000000     
  0.90118569000000004       0.73039821000000005        0.0000000000000000     
  0.73122947000000005        9.8017859999999998E-002   0.0000000000000000     
   9.8084400000000002E-002  0.73212551999999997        0.0000000000000000     
  0.26957329000000002       0.90221516999999996        0.0000000000000000     
  0.39283522999999998       0.25360379000000000        0.0000000000000000     
  0.74480864000000002       0.60495284999999999        0.0000000000000000     
  0.25505132000000003       0.60593640999999998        0.0000000000000000     
  0.52159297999999998       0.40671636000000000        0.0000000000000000     
  0.40768852000000000       0.47699891000000000        0.0000000000000000     
   9.1467049999999994E-002   9.1876959999999994E-002   0.0000000000000000     
  0.90842484999999995       0.90819225000000003        0.0000000000000000     
  0.90820104999999995        9.1566729999999999E-002   0.0000000000000000     
   9.1807449999999999E-002  0.90843574000000005        0.0000000000000000     
  0.27098960000000000       0.20527094000000001        0.0000000000000000     
  0.73457293999999995       0.79835387000000002        0.0000000000000000     
  0.79817773000000003       0.25713470999999999        0.0000000000000000     
  0.20747797000000001       0.72863946000000002        0.0000000000000000     
  0.20175195000000001       0.27583914999999998        0.0000000000000000     
  0.79603889000000005       0.72159035000000005        0.0000000000000000     
  0.71761666000000002       0.19748431999999999        0.0000000000000000     
  0.28462607000000001       0.80251899999999998        0.0000000000000000     
  0.69134598999999997       0.49261972999999998        0.0000000000000000     
  0.44720578999999999       0.58582935999999997        0.0000000000000000     
  0.24242269999999999       0.37228174000000003        0.0000000000000000     
  0.38265623999999998       0.93072131999999996        0.0000000000000000     
  0.60971754000000000       0.91988369000000003        0.0000000000000000     
   7.9163609999999995E-002  0.60979116000000000        0.0000000000000000     
  0.92010649000000000       0.61081183999999999        0.0000000000000000     
  0.61954008999999999        7.1530830000000004E-002   0.0000000000000000     
  0.91882012999999996       0.38917363999999999        0.0000000000000000     
  0.39086346000000000        8.0652249999999995E-002   0.0000000000000000     
   7.9183480000000001E-002  0.38966213000000000        0.0000000000000000     
  0.59114111999999996       0.49294315000000000        0.0000000000000000     
  0.63337980999999999       0.64485914000000000        0.0000000000000000     
  0.50012352000000004       0.29676539000000002        0.0000000000000000     
  0.82552601000000003       0.92753492000000004        0.0000000000000000     
  0.92774772999999999       0.82498556999999995        0.0000000000000000     
   7.1970870000000006E-002  0.17510291000000000        0.0000000000000000     
  0.17422821999999999        7.2635640000000001E-002   0.0000000000000000     
  0.82510813000000005        7.2134840000000006E-002   0.0000000000000000     
  0.92754665000000003       0.17446275999999999        0.0000000000000000     
  0.17501022999999999       0.92789951999999998        0.0000000000000000     
   7.2464680000000004E-002  0.82554053000000005        0.0000000000000000     
  0.30731587999999999       0.50885354999999999        0.0000000000000000     
  0.59033407999999998       0.22171178999999999        0.0000000000000000     
  0.40109191999999999       0.78725542000000004        0.0000000000000000     
  0.35420917000000002       0.63754104000000000        0.0000000000000000     
  0.15983976999999999       0.56665573000000002        0.0000000000000000     
  0.84108459999999996       0.56757886999999996        0.0000000000000000     
  0.83902096000000004       0.43344338999999998        0.0000000000000000     
  0.43230028999999998       0.16004268999999999        0.0000000000000000     
  0.57536027999999995       0.83041363999999995        0.0000000000000000     
  0.15771898000000001       0.42747892999999998        0.0000000000000000     
  0.34021692999999997       0.34221559000000001        0.0000000000000000     
  0.56002271999999997       0.57501117999999996        0.0000000000000000     
  0.65344329000000001       0.78147597999999996        0.0000000000000000     
   0.0000000000000000        0.0000000000000000        0.0000000000000000     
   1.0000000000000000        0.0000000000000000        0.0000000000000000     
   1.0000000000000000        1.0000000000000000        0.0000000000000000     
   0.0000000000000000        1.0000000000000000        0.0000000000000000     
  0.11111111000000000        0.0000000000000000        0.0000000000000000     
  0.22222222000000000        0.0000000000000000        0.0000000000000000     
  0.33333332999999998        0.0000000000000000        0.0000000000000000     
  0.44444444000000000        0.0000000000000000        0.0000000000000000     
  0.55555555999999995        0.0000000000000000        0.0000000000000000     
  0.66666667000000002        0.0000000000000000        0.0000000000000000     
  0.77777777999999997        0.0000000000000000        0.0000000000000000     
  0.88888889000000004        0.0000000000000000        0.0000000000000000     
   1.0000000000000000       0.11111111000000000        0.0000000000000000     
   1.0000000000000000       0.22222222000000000        0.0000000000000000     
   1.0000000000000000       0.33333332999999998        0.0000000000000000     
   1.0000000000000000       0.44444444000000000        0.0000000000000000     
   1.0000000000000000       0.55555555999999995        0.0000000000000000     
   1.0000000000000000       0.66666667000000002        0.0000000000000000     
   1.0000000000000000       0.77777777999999997        0.0000000000000000     
   1.0000000000000000       0.88888889000000004        0.0000000000000000     
  0.88888889000000004        1.0000000000000000        0.0000000000000000     
  0.77777777999999997        1.0000000000000000        0.0000000000000000     
  0.66666667000000002        1.0000000000000000        0.0000000000000000     
  0.55555555999999995        1.0000000000000000        0.0000000000000000     
  0.44444444000000000        1.0000000000000000        0.0000000000000000     
  0.33333332999999998        1.0000000000000000        0.0000000000000000     
  0.22222222000000000        1.0000000000000000        0.0000000000000000     
  0.11111111000000000        1.0000000000000000        0.0000000000000000     
   0.0000000000000000       0.11111111000000000        0.0000000000000000     
   0.0000000000000000       0.22222222000000000        0.0000000000000000     
[...]
 CELL_DATA         354
 SCALARS U float
 LOOKUP_TABLE default
    0.22227177948191279011E+00
    0.31161091291805453896E+00
    0.20360305791762692285E+00
    0.20903777805051546035E+00
    0.29792503950964493997E+00
    0.31884445774157055276E+00
    0.36822729028781858718E+00
    0.33608593324152324922E+00
    0.44060198619676288478E+00
    0.50318057178687092268E+00
    0.58711176166489031925E+00
    0.54093964644206393722E+00
    0.61202543693320754503E+00
    0.60680782467290916848E+00
    0.58094846534873201271E+00
    0.60199218424412448414E+00
    0.53075304727932959281E+00
    0.47872322703997360893E+00
    0.42563773550938088786E+00
    0.45423880346983697143E+00
    0.36793430826999151684E+00
    0.38507759578168443415E+00
    0.40975911717577789828E+00
    0.39221439440735961224E+00
    0.40468646241371275529E+00
    0.39945127918505718423E+00
    0.37447228636264107138E+00
    0.39282161008909011191E+00
    0.32465114609517103927E+00
    0.29963120180402547099E+00
    0.23980733323302624860E+00
    0.27231595073727549172E+00
    0.22347439438499303033E+00
    0.21651555875481820479E+00
    0.20514626523253090551E+00
    0.21089438821267472712E+00
    0.20685423145672443557E+00
    0.20071680917583040182E+00
    0.20014152292420336887E+00
    0.20180172258520889805E+00
    0.18556825007653829362E+00
    0.18975866146542183510E+00
    0.18622080737720331234E+00
    0.18981182652296352265E+00
    0.19801089077185429765E+00
    0.19412129465652749882E+00
    0.18794599893955210579E+00
    0.18483304209853695932E+00
    0.19543444703434323384E+00
    0.19932746611991067343E+00
    0.19567819190686860931E+00
    0.19016133408259422444E+00
    0.23662009093625066547E+00
    0.24222324190768035335E+00
    0.24168070534546265415E+00
    0.23547136753824104982E+00
    0.21980380746889208177E+00
    0.22150559457286561615E+00
    0.22336914044923933398E+00
    0.22999518858241060904E+00
    0.21537624800371918399E+00
    0.20868914038644123532E+00
    0.18560455100619160929E+00
    0.19921949189700094429E+00
    0.19254773550591153253E+00
    0.19676628721477562589E+00
    0.18457666284565529824E+00
    0.18622997231681598373E+00
    0.72546816521038681724E+00
    0.67971894824446510430E+00
    0.65208374281045122789E+00
    0.69839631500131649222E+00
    0.66054574601624216346E+00
    0.64467497854636279797E+00
    0.60068034221330246503E+00
    0.59172903346919247802E+00
    0.59648400390372580127E+00
    0.63949798189050610642E+00
    0.41601706385318637516E+00
    0.47696013366205075590E+00
    0.40334274862154739782E+00
    0.41594444362782517777E+00
    0.51578811565044613285E+00
    0.36317530436276185268E+00
    0.70016235188269693168E+00
    0.73450823837088852208E+00
    0.67129489568973066405E+00
    0.73376637562105562207E+00
    0.71276987087653298492E+00
    0.75671981786718378604E+00
    0.71528549336906277478E+00
    0.47479984399698216269E+00
    0.43044105361044260327E+00
    0.34459508180428244373E+00
    0.31983171443897628894E+00
    0.36055823944388309954E+00
    0.51083560388501192406E+00
    0.56967354627009647583E+00
    0.65218200733405107261E+00
    0.59055238070854043642E+00
    0.65203923602582958274E+00
    0.54624765038727418620E+00
    0.62055861612223728319E+00
    0.71212152309025367192E+00
    0.71149548716238064650E+00
    0.75543351466165897801E+00
    0.76087713470649398495E+00
    0.73720882441555424247E+00
    0.47456000345421750497E+00
    0.42370349324465883534E+00
    0.38149133883222308139E+00
    0.41373751577870898632E+00
    0.39441822771229895217E+00
    0.36116837894524461694E+00
    0.57733539287577750887E+00
    0.42380142178260893360E+00
    0.46176624610818212124E+00
    0.50327279616107689630E+00
    0.55310740604336050552E+00
    0.36185351072890936663E+00
    0.45336495513373664679E+00
    0.25021659229735648822E+00
    0.28290296149427934802E+00
    0.23480567930809917443E+00
    0.32984688560734715113E+00
    0.34825017368345556612E+00
    0.21263067422405215745E+00
    0.23468228020799594691E+00
    0.39216549011282442194E+00
    0.47863259726109419478E+00
    0.36376933449966014633E+00
    0.55737034215542458071E+00
    0.51049531807728587562E+00
    0.32954257003140269289E+00
    0.39002254243269612877E+00
    0.60528144637753156232E+00
    0.63899794716581348464E+00
    0.54190479962518600665E+00
    0.66377885048522422551E+00
    0.66999028388405679202E+00
    0.59075787830005743739E+00
    0.54190390318271430825E+00
    0.20858862249436904701E+00
    0.19803108014358627997E+00
    0.19493168739787963828E+00
    0.26080057764966946277E+00
    0.24959569116476942874E+00
    0.18458040438822143070E+00
    0.18576744833480096641E+00
    0.66932551162109610310E+00
    0.72143405656786641078E+00
    0.73133657163738752249E+00
    0.68832613898510808248E+00
    0.74317451564750092174E+00
    0.69581547354896822188E+00
    0.62354705812250965646E+00
    0.66154963237784136787E+00
    0.66877468542106122129E+00
    0.62374567658726609576E+00
    0.62765317072076842742E+00
    0.55547421512184536052E+00
    0.57158147062649033998E+00
    0.56946006885015398868E+00
    0.56452322492696083156E+00
    0.54109090059904563219E+00
    0.31992752781325672906E+00
    0.35962342140403014135E+00
    0.33029489870098238669E+00
    0.32146658463855964927E+00
    0.34989611590326830104E+00
    0.62154031924395991560E+00
    0.66748519674725115269E+00
    0.61777580131480636094E+00
    0.64656226945602790490E+00
    0.66798995212167810998E+00
    0.47119251311726506604E+00
    0.48360381787915041052E+00
    0.46350482086776007007E+00
    0.46340282399822402271E+00
    0.44094481734548807150E+00
    0.68153507265619506228E+00
    0.64109804166606665365E+00
    0.66943923397811500031E+00
    0.62413967290669769561E+00
    0.63457937250465845658E+00
    0.46282463576794402593E+00
    0.47343034467787453723E+00
    0.42676692917301722874E+00
    0.48711451957294532589E+00
    0.48029471739589513213E+00
    0.72859645161076302955E+00
    0.68519136223926246920E+00
    0.72879836301338973836E+00
    0.72248381255799065670E+00
    0.74233825739235959063E+00
    0.31475122659478871334E+00
    0.32993962930743198081E+00
    0.29671979639184659083E+00
    0.33725502107600596746E+00
    0.33764077876003611989E+00
    0.21647306027031870679E+00
    0.25812480954325933702E+00
    0.25809014006404834563E+00
    0.22436760020355456247E+00
    0.25131302738216321213E+00
    0.72422852434608731009E+00
    0.74345108330955422815E+00
    0.74320964943859879615E+00
    0.71419557975221725776E+00
    0.73363468244908136562E+00
    0.51493729297568191505E+00
    0.48624956423654064341E+00
    0.57751577344746329867E+00
    0.55345391077502448240E+00
    0.59904123768474359935E+00
    0.64650337684278147421E+00
    0.60920568753564730002E+00
    0.58858889634851274675E+00
    0.63107152124825149908E+00
    0.70835686160083466412E+00
    0.66542223522275056879E+00
    0.63894745016314413721E+00
    0.51302158328137426047E+00
    0.39824999799431520797E+00
    0.49042054437343529649E+00
    0.20842020793405480195E+00
    0.25420818391118754631E+00
    0.32255292318605111035E+00
    0.32508750560084626047E+00
    0.31194822262552274195E+00
    0.35768845169158541841E+00
    0.35487528839358639665E+00
    0.45874218854361364928E+00
    0.46324945777549125792E+00
    0.55102606897296979582E+00
    0.52995446618982056108E+00
    0.60954477094090342426E+00
    0.71434061381919766731E+00
    0.65213429790947918807E+00
    0.70262195424334650262E+00
    0.70132309786122282169E+00
    0.50519909954974795419E+00
    0.38900472583541073623E+00
    0.37828035813628063666E+00
    0.69444736178094135237E+00
    0.65160215326444947959E+00
    0.31141096811700180735E+00
    0.26629790560558003198E+00
    0.20968424324326551123E+00
    0.47416029091304712217E+00
    0.37409567676372185163E+00
    0.30973973454543823891E+00
    0.58760868113306841121E+00
    0.60230549091603458045E+00
    0.40034152659546456965E+00
    0.65154269185850099966E+00
    0.57342790604996229931E+00
    0.53229376087038149379E+00
    0.38494384308645901438E+00
    0.40784502875566663871E+00
    0.23891950544699847025E+00
    0.68374620436673516632E+00
    0.66432410306863343141E+00
    0.59526114783917860596E+00
    0.27300227531410020676E+00
    0.27372909985559656931E+00
    0.19143881545905033770E+00
    0.24781417601469551970E+00
    0.22222030094442923875E+00
    0.18368280884015186771E+00
    0.62813633152940218096E+00
    0.70718921089796893398E+00
    0.71097519865943437090E+00
    0.69705996950724025130E+00
    0.43419499431858382676E+00
    0.62526044058908902823E+00
    0.57959878521757401959E+00
    0.53022756601176201929E+00
    0.32983124043083827948E+00
    0.57009855739729486945E+00
    0.51314596355226105295E+00
    0.35685425618871602360E+00
    0.70054905419557245150E+00
    0.74411480265440876902E+00
    0.72339915669205345772E+00
    0.62518794344261552354E+00
    0.58314558780818637196E+00
    0.31610601402900473378E+00
    0.36569113205526254662E+00
    0.21244349136186768678E+00
    0.22838404512722815243E+00
    0.53518886255250219808E+00
    0.49819010371229388578E+00
    0.17839048840472312984E+00
    0.18070475842887498419E+00
    0.57806995640815272974E+00
    0.38897938720217895003E+00
    0.38872147093789027883E+00
    0.69863075253909634466E+00
    0.30247092897377325649E+00
    0.53373383876217861399E+00
    0.77661484669873459552E+00
    0.27545925314238151049E+00
    0.69150731291850053850E+00
    0.50936048702250935616E+00
    0.61840260521206991129E+00
    0.42693124965261464165E+00
    0.61207226184240870470E+00
    0.31811735024856679921E+00
    0.35099122152632461491E+00
    0.49922499596521213716E+00
    0.60893646489262331922E+00
    0.65887524633512484229E+00
    0.44116051535850675513E+00
    0.65838025009639666862E+00
    0.61031828697796652872E+00
    0.71773274251244312261E+00
    0.35894471187425985859E+00
    0.24592641545625365529E+00
    0.18705386138093560433E+00
    0.32183826894878320157E+00
    0.26586328112330709361E+00
    0.19883923802958772264E+00
    0.19877781541993383430E+00
    0.20836601371983301534E+00
    0.19596072551290519281E+00
    0.29561170881529152954E+00
    0.34007889328970297704E+00
    0.43816975422354470515E+00
    0.51864935130429468124E+00
    0.52427386829157085479E+00
    0.47691981520475223988E+00
    0.39677636448423447835E+00
    0.29831794995490634737E+00
    0.30784706628701807851E+00
    0.29749753584233418202E+00
    0.27074623195422631294E+00
    0.23495939768388821034E+00
    0.20529374503936939633E+00
    0.21001605474974946453E+00
    0.19307009055585716562E+00
    0.17882069314199589005E+00
    0.17610509172344662732E+00
    0.17434579784840836814E+00
    0.18486827505305633568E+00
    0.19143912594255521609E+00
    0.20453385203094712197E+00
    0.19109572744887914908E+00
    0.18301605214997770932E+00
    0.18152311447419208768E+00
    0.18125602206665669680E+00
    0.18286396371762131396E+00
    0.18212788877791202813E+00
    0.19808954519596702615E+00
