# vtk DataFile Version 3.0
LAPLACIEN  2D
ASCII
DATASET UNSTRUCTURED_GRID
 POINTS         391  float
  0.50371505999999999       0.50367786999999997        0.0000000000000000     
  0.29013556000000001       0.29014535000000002        0.0000000000000000     
  0.70165584999999997       0.71206597999999999        0.0000000000000000     
  0.70304188999999995       0.30176619999999998        0.0000000000000000     
  0.30920671999999999       0.71149227999999998        0.0000000000000000     
  0.79044983999999996       0.49884783999999999        0.0000000000000000     
  0.49102621000000002       0.20968644000000000        0.0000000000000000     
  0.49912957000000002       0.77208717000000004        0.0000000000000000     
  0.21724072999999999       0.48989389000000000        0.0000000000000000     
  0.83255933999999998       0.83046598000000005        0.0000000000000000     
  0.16646774000000000       0.17015694000000001        0.0000000000000000     
  0.83054514999999995       0.16736480000000001        0.0000000000000000     
  0.16953130999999999       0.83265739000000005        0.0000000000000000     
  0.42166445000000002       0.36345201999999999        0.0000000000000000     
  0.64462200999999997       0.56347807999999999        0.0000000000000000     
  0.35324633999999999       0.56311191000000005        0.0000000000000000     
  0.65456411000000003       0.84856860999999995        0.0000000000000000     
  0.35141477999999998       0.15563974000000000        0.0000000000000000     
  0.15290967000000000       0.35206625000000003        0.0000000000000000     
  0.82942241000000005       0.34936866000000000        0.0000000000000000     
  0.84390527000000004       0.64441694999999999        0.0000000000000000     
  0.63699174999999997       0.14284276000000001        0.0000000000000000     
  0.15620682999999999       0.64648446999999998        0.0000000000000000     
  0.36426062999999997       0.85756310999999996        0.0000000000000000     
  0.63489340999999999       0.40519052000000000        0.0000000000000000     
  0.52518872999999999       0.65957078000000002        0.0000000000000000     
  0.32158959999999998       0.42298103999999997        0.0000000000000000     
  0.58861710000000000       0.31711036999999997        0.0000000000000000     
  0.42078418000000001       0.69497151999999995        0.0000000000000000     
  0.48608786999999998       0.89334152000000000        0.0000000000000000     
   9.7084320000000002E-002  0.50000000000000000        0.0000000000000000     
  0.90291568000000000       0.50000000000000000        0.0000000000000000     
  0.51392453000000005       0.10668648999999999        0.0000000000000000     
  0.59792566999999996       0.73122754000000001        0.0000000000000000     
  0.74510058999999995       0.41124730999999998        0.0000000000000000     
  0.73212551999999997       0.90191560000000004        0.0000000000000000     
   9.7784830000000003E-002  0.26957329000000002        0.0000000000000000     
  0.26711221000000002        9.8671499999999995E-002   0.0000000000000000     
  0.90191560000000004       0.26787448000000003        0.0000000000000000     
  0.90118569000000004       0.73039821000000005        0.0000000000000000     
  0.73122947000000005        9.8017859999999998E-002   0.0000000000000000     
   9.8084400000000002E-002  0.73212551999999997        0.0000000000000000     
  0.26957329000000002       0.90221516999999996        0.0000000000000000     
  0.39283522999999998       0.25360379000000000        0.0000000000000000     
  0.74480864000000002       0.60495284999999999        0.0000000000000000     
  0.25505132000000003       0.60593640999999998        0.0000000000000000     
  0.52159297999999998       0.40671636000000000        0.0000000000000000     
  0.40768852000000000       0.47699891000000000        0.0000000000000000     
   9.1467049999999994E-002   9.1876959999999994E-002   0.0000000000000000     
  0.90842484999999995       0.90819225000000003        0.0000000000000000     
  0.90820104999999995        9.1566729999999999E-002   0.0000000000000000     
   9.1807449999999999E-002  0.90843574000000005        0.0000000000000000     
  0.27098960000000000       0.20527094000000001        0.0000000000000000     
  0.73457293999999995       0.79835387000000002        0.0000000000000000     
  0.79817773000000003       0.25713470999999999        0.0000000000000000     
  0.20747797000000001       0.72863946000000002        0.0000000000000000     
  0.20175195000000001       0.27583914999999998        0.0000000000000000     
  0.79603889000000005       0.72159035000000005        0.0000000000000000     
  0.71761666000000002       0.19748431999999999        0.0000000000000000     
  0.28462607000000001       0.80251899999999998        0.0000000000000000     
  0.69134598999999997       0.49261972999999998        0.0000000000000000     
  0.44720578999999999       0.58582935999999997        0.0000000000000000     
  0.24242269999999999       0.37228174000000003        0.0000000000000000     
  0.38265623999999998       0.93072131999999996        0.0000000000000000     
  0.60971754000000000       0.91988369000000003        0.0000000000000000     
   7.9163609999999995E-002  0.60979116000000000        0.0000000000000000     
  0.92010649000000000       0.61081183999999999        0.0000000000000000     
  0.61954008999999999        7.1530830000000004E-002   0.0000000000000000     
  0.91882012999999996       0.38917363999999999        0.0000000000000000     
  0.39086346000000000        8.0652249999999995E-002   0.0000000000000000     
   7.9183480000000001E-002  0.38966213000000000        0.0000000000000000     
  0.59114111999999996       0.49294315000000000        0.0000000000000000     
  0.63337980999999999       0.64485914000000000        0.0000000000000000     
  0.50012352000000004       0.29676539000000002        0.0000000000000000     
  0.82552601000000003       0.92753492000000004        0.0000000000000000     
  0.92774772999999999       0.82498556999999995        0.0000000000000000     
   7.1970870000000006E-002  0.17510291000000000        0.0000000000000000     
  0.17422821999999999        7.2635640000000001E-002   0.0000000000000000     
  0.82510813000000005        7.2134840000000006E-002   0.0000000000000000     
  0.92754665000000003       0.17446275999999999        0.0000000000000000     
  0.17501022999999999       0.92789951999999998        0.0000000000000000     
   7.2464680000000004E-002  0.82554053000000005        0.0000000000000000     
  0.30731587999999999       0.50885354999999999        0.0000000000000000     
  0.59033407999999998       0.22171178999999999        0.0000000000000000     
  0.40109191999999999       0.78725542000000004        0.0000000000000000     
  0.35420917000000002       0.63754104000000000        0.0000000000000000     
  0.15983976999999999       0.56665573000000002        0.0000000000000000     
  0.84108459999999996       0.56757886999999996        0.0000000000000000     
  0.83902096000000004       0.43344338999999998        0.0000000000000000     
  0.43230028999999998       0.16004268999999999        0.0000000000000000     
  0.57536027999999995       0.83041363999999995        0.0000000000000000     
  0.15771898000000001       0.42747892999999998        0.0000000000000000     
  0.34021692999999997       0.34221559000000001        0.0000000000000000     
  0.56002271999999997       0.57501117999999996        0.0000000000000000     
  0.65344329000000001       0.78147597999999996        0.0000000000000000     
   0.0000000000000000        0.0000000000000000        0.0000000000000000     
   1.0000000000000000        0.0000000000000000        0.0000000000000000     
   1.0000000000000000        1.0000000000000000        0.0000000000000000     
   0.0000000000000000        1.0000000000000000        0.0000000000000000     
  0.11111111000000000        0.0000000000000000        0.0000000000000000     
  0.22222222000000000        0.0000000000000000        0.0000000000000000     
  0.33333332999999998        0.0000000000000000        0.0000000000000000     
  0.44444444000000000        0.0000000000000000        0.0000000000000000     
  0.55555555999999995        0.0000000000000000        0.0000000000000000     
  0.66666667000000002        0.0000000000000000        0.0000000000000000     
  0.77777777999999997        0.0000000000000000        0.0000000000000000     
  0.88888889000000004        0.0000000000000000        0.0000000000000000     
   1.0000000000000000       0.11111111000000000        0.0000000000000000     
   1.0000000000000000       0.22222222000000000        0.0000000000000000     
   1.0000000000000000       0.33333332999999998        0.0000000000000000     
   1.0000000000000000       0.44444444000000000        0.0000000000000000     
   1.0000000000000000       0.55555555999999995        0.0000000000000000     
   1.0000000000000000       0.66666667000000002        0.0000000000000000     
   1.0000000000000000       0.77777777999999997        0.0000000000000000     
   1.0000000000000000       0.88888889000000004        0.0000000000000000     
  0.88888889000000004        1.0000000000000000        0.0000000000000000     
  0.77777777999999997        1.0000000000000000        0.0000000000000000     
  0.66666667000000002        1.0000000000000000        0.0000000000000000     
  0.55555555999999995        1.0000000000000000        0.0000000000000000     
  0.44444444000000000        1.0000000000000000        0.0000000000000000     
  0.33333332999999998        1.0000000000000000        0.0000000000000000     
  0.22222222000000000        1.0000000000000000        0.0000000000000000     
  0.11111111000000000        1.0000000000000000        0.0000000000000000     
   0.0000000000000000       0.11111111000000000        0.0000000000000000     
   0.0000000000000000       0.22222222000000000        0.0000000000000000     
[...]
 CELL_DATA         354
 SCALARS U float
 LOOKUP_TABLE default
    0.12440294389179215942E-01
    0.19345381607634874743E-01
    0.13071878015317199215E-01
    0.14626670748911321449E-01
    0.17012376164081695340E-01
    0.18790940252692664436E-01
    0.24305872491730842744E-01
    0.19542359349866568474E-01
    0.14477359681834695015E+00
    0.27626239673485741832E+00
    0.33214913432915915692E+00
    0.31504899182282503078E+00
    0.34143209363429971592E+00
    0.34004356228352766722E+00
    0.33098520386514435065E+00
    0.33676557691847608389E+00
    0.31584204111485264521E+00
    0.25454248249648592228E+00
    0.75666681072288535792E-01
    0.15692400495019986906E+00
    0.23291074586189265683E-01
    0.24856386540522051876E-01
    0.13666213901509294271E+00
    0.10171797991225037250E+00
    0.15708830918025867840E+00
    0.12413056896120222561E+00
    0.51044757245152935776E-01
    0.53239589416293892077E-01
    0.19711937842714258307E-01
    0.16314191356653285486E-01
    0.12880732883907902372E-01
    0.14823931481568073873E-01
    0.12939907189279876987E-01
    0.12538758083965557272E-01
    0.12668388847692899427E-01
    0.12710275002614606493E-01
    0.13094479883433823506E-01
    0.12338793238675651101E-01
    0.11753347930341159072E-01
    0.12089437282145534119E-01
    0.10488841836079454417E-01
    0.10809584277859723631E-01
    0.10432972329859511659E-01
    0.10736142602881122363E-01
    0.11380394900026470292E-01
    0.11170412848666853162E-01
    0.11223113154564525948E-01
    0.10810747549903293799E-01
    0.12070422982795904476E-01
    0.12871218647090591422E-01
    0.13203804021601841384E-01
    0.12426685404673842861E-01
    0.12859865999137005607E-01
    0.12957568315487784372E-01
    0.12796766321301670383E-01
    0.12292414829306621410E-01
    0.11486663191018429628E-01
    0.11662891100318205015E-01
    0.11860905824365339592E-01
    0.12224985145062362141E-01
    0.11904738966397468772E-01
    0.11538841510825525311E-01
    0.10499050883447286903E-01
    0.11292130327515133986E-01
    0.11558584546725984149E-01
    0.12286105695858407644E-01
    0.11972952894147978128E-01
    0.11826326091527644691E-01
    0.35004248568256046692E+00
    0.36083696168477708000E+00
    0.36724480995831543240E+00
    0.35254078383307940747E+00
    0.36199005426736430291E+00
    0.35593261179026064456E+00
    0.34983624045944650138E+00
    0.34497788290501518738E+00
    0.34858467358798428393E+00
    0.36242177988643309305E+00
    0.30182634982574799154E-01
    0.10513975246932968921E+00
    0.27041275841953735931E-01
    0.29435060355357978157E-01
    0.10817545102366053766E+00
    0.24621654739456287631E-01
    0.34621197951242255186E+00
    0.11838206068286730166E+00
    0.25256634610854748757E-01
    0.27137243405396949125E+00
    0.33004503068421864320E+00
    0.19150072094305878312E+00
    0.48566055712214853401E-01
    0.32424099866641541146E-01
    0.27073928315103835962E-01
    0.21502939789013127830E-01
    0.19719980274908850693E-01
    0.21547765388429056255E-01
    0.35397405885569915851E-01
    0.31676459960960523521E+00
    0.35788051996214997885E+00
    0.34025177534687622849E+00
    0.36249336704936085951E+00
    0.29913198393254913920E+00
    0.35422750074418235533E+00
    0.26148603518645607835E+00
    0.25558044419352204946E+00
    0.10390145535152095491E+00
    0.10852076445088142120E+00
    0.34344405374489234140E+00
    0.36369623411134449631E-01
    0.30627340783580384032E-01
    0.23267039467295851096E-01
    0.28603423767837365954E-01
    0.24763261098407311767E-01
    0.23480358765539437182E-01
    0.30305286517633545085E+00
    0.28337888541383339513E-01
    0.39223421073319039709E-01
    0.17169272437756519234E+00
    0.18145225503039863479E+00
    0.23164959129423106504E-01
    0.38839751297201394187E-01
    0.14529325194486564926E-01
    0.16613999838156159883E-01
    0.14206287821861248930E-01
    0.19920989959231583111E-01
    0.21054631566418294947E-01
    0.12760113251256231109E-01
    0.14144317110308203544E-01
    0.24768938875220383039E-01
    0.10595935390312247182E+00
    0.22219492509110771311E-01
    0.17660971333025754504E+00
    0.10182166135453132871E+00
    0.19637768701069112376E-01
    0.26491594651994316428E-01
    0.35063586748551345273E+00
    0.35658521004670329368E+00
    0.30325843514703126891E+00
    0.36382944498549346646E+00
    0.35618431240432812945E+00
    0.34075284606005978860E+00
    0.30623304844550380821E+00
    0.12161323238549317377E-01
    0.11523150752185223195E-01
    0.11928029109256953894E-01
    0.15456109953413697811E-01
    0.14674622409653465677E-01
    0.11099227527226005613E-01
    0.11158040822969415851E-01
    0.35797419289769116801E+00
    0.31219460326159775843E+00
    0.20457493031323276123E+00
    0.33814514864483691259E+00
    0.16852693096430929054E+00
    0.36398834769274973633E+00
    0.36160093936620785193E+00
    0.36569036834480550535E+00
    0.35948008631546246594E+00
    0.36090339351925082578E+00
    0.35727494820799532427E+00
    0.10808916560221057401E+00
    0.33565662013976838018E+00
    0.31029555214775067506E+00
    0.23997885554401635066E+00
    0.16682360736924747857E+00
    0.19395986433845293501E-01
    0.23408597821827307334E-01
    0.20190450832076697885E-01
    0.21067358478294356816E-01
    0.22845567996233183405E-01
    0.36159219555757160514E+00
    0.35946129640078738898E+00
    0.35544729944545028211E+00
    0.36295722496634785781E+00
    0.36227922636377862808E+00
    0.30168571685384826947E-01
    0.79629528408023772523E-01
    0.79341934387518353589E-01
    0.28196179932567465992E-01
    0.33186356668742561515E-01
    0.35425927500230314227E+00
    0.36913500526353626441E+00
    0.36144492954164170184E+00
    0.36497138866140699243E+00
    0.36259760577917060642E+00
    0.29127463540838290090E-01
    0.76183310980040580551E-01
    0.29901934020111591017E-01
    0.34085815234043984057E-01
    0.77268331184459387861E-01
    0.32581030540694394526E+00
    0.34959491292273153773E+00
    0.27376140882433658286E+00
    0.37040351154716133486E+00
    0.22759826716701109239E+00
    0.19048159438468863919E-01
    0.20924060983718132528E-01
    0.18528814987890905586E-01
    0.21106047772568352350E-01
    0.21597511167101613588E-01
    0.12542325520171020842E-01
    0.15499445942162255047E-01
    0.15728125649695355592E-01
    0.13249313820443210307E-01
    0.14726659235421745917E-01
    0.31183290111327120059E-01
    0.27166755659283803315E+00
    0.12117574063986963351E+00
    0.33693723451185603190E+00
    0.26729725270984922014E+00
    0.12819064147702335932E+00
    0.87918483538688113610E-01
    0.28626225236030228283E+00
    0.24395057159377639411E+00
    0.34891151462373848346E+00
    0.35835234437965135523E+00
    0.32938741979267494031E+00
    0.33187099120565233257E+00
    0.35572515782263408601E+00
    0.29001665276679657740E-01
    0.19965087117965088503E-01
    0.18698891033879529860E-01
    0.18012695655907817738E+00
    0.25141064329999851523E-01
    0.88575672410550976288E-01
    0.12367151123367678758E-01
    0.14484815372367216765E-01
    0.18520811658714098763E-01
    0.19542098365185878867E-01
    0.18153442023710251313E-01
    0.19913058806525305716E-01
    0.21654081893287865923E-01
    0.28781621762808483334E-01
    0.32126952650792996169E-01
    0.20935207698770547102E+00
    0.15944743400853603199E+00
    0.34303159485976203458E+00
    0.37536741048370608764E+00
    0.35168996236021154989E+00
    0.21628367750177324158E+00
    0.35190147529493615020E+00
    0.90667640145752542713E-01
    0.25262838687198082427E-01
    0.24815611565132372762E-01
    0.35290193744852926816E+00
    0.35922304076289923724E+00
    0.19024342381315496181E-01
    0.15290644392869864182E-01
    0.12573939896776558517E-01
    0.35028606183108185190E-01
    0.19905827584162132798E-01
    0.17430060004139904389E-01
    0.27027246815079197795E+00
    0.31728215161075096207E+00
    0.28359603445487699402E-01
    0.37018982428651836525E+00
    0.29968239281642472527E+00
    0.25965379053546194799E+00
    0.23695882599986565348E-01
    0.24162595184212334876E-01
    0.14308725127407580582E-01
    0.35212498838785066813E+00
    0.35457737305464975819E+00
    0.34198639505161715357E+00
    0.16478068842517408499E-01
    0.16076860340175511133E-01
    0.11526746762065203517E-01
    0.14854667266301069956E-01
    0.13138324122935340563E-01
    0.11053094694545968768E-01
    0.35068778411377143911E+00
    0.20524837256286157516E+00
    0.35332361124715794265E+00
    0.36838955240852588879E+00
    0.34445224952797587337E-01
    0.36303741584611926019E+00
    0.26861997813270244162E+00
    0.21855306919880521099E+00
    0.20745213715762843287E-01
    0.10617975419844877250E+00
    0.45341644920293751320E-01
    0.22506328931871429772E-01
    0.33190063925729634819E+00
    0.27409242484162521514E+00
    0.60048992773422085745E-01
    0.35737413607164136842E+00
    0.33945147404075493025E+00
    0.18152895903454834003E-01
    0.21981068875861133061E-01
    0.12963146860465627613E-01
    0.13880521996677223223E-01
    0.22826874253614740096E+00
    0.15661108412583180094E+00
    0.10923639501629001103E-01
    0.11032458228002478204E-01
    0.26307784144507073698E+00
    0.25178950091047293258E-01
    0.25856947733351409030E-01
    0.33332877338256267086E+00
    0.18414956627255958665E-01
    0.22940633121202541611E+00
    0.13210078377697637153E+00
    0.16591665086283225589E-01
    0.34926488402061051097E+00
    0.20660297450699249833E+00
    0.35889056147565012722E+00
    0.41302268938957928390E-01
    0.35939206701357107043E+00
    0.19446298279359994221E-01
    0.21715832906557378662E-01
    0.39100678052821885577E-01
    0.34573066342680491836E+00
    0.35868807741081459861E+00
    0.27697631194544606453E-01
    0.35469926771659554543E+00
    0.35404999348620697086E+00
    0.29777026232255452559E-01
    0.23208419168671303584E-01
    0.14075912387949885210E-01
    0.10262705839553914675E-01
    0.18493190901177496838E-01
    0.14129575459757577616E-01
    0.12785709218354453579E-01
    0.13023188774762753731E-01
    0.14965334181251444684E-01
    0.13625860085901738902E-01
    0.17296242259866104196E-01
    0.21961563899693281599E-01
    0.15711553296029970306E+00
    0.17811566924162458569E+00
    0.17680524008941184144E+00
    0.16856138653990207499E+00
    0.10402142178818503393E+00
    0.16245849439423351579E-01
    0.49781563011184450096E-01
    0.16772175655907890779E-01
    0.14501922865416466343E-01
    0.12206088541110569901E-01
    0.11305063897346704499E-01
    0.12609519573810880344E-01
    0.11940433018474373369E-01
    0.10371360798195740013E-01
    0.99451596949146695015E-02
    0.99113064196091164859E-02
    0.10985864202942842785E-01
    0.12013924404025627668E-01
    0.13921060995146838923E-01
    0.99693353373270024442E-02
    0.91962604990207096750E-02
    0.91028513597821766185E-02
    0.94406295248795884384E-02
    0.10026503880275160902E-01
    0.10775033566313554911E-01
    0.12975023304133505297E-01
