# vtk DataFile Version 3.0
LAPLACIEN  2D
ASCII
DATASET UNSTRUCTURED_GRID
 POINTS         391  float
  0.50371505999999999       0.50367786999999997        0.0000000000000000     
  0.29013556000000001       0.29014535000000002        0.0000000000000000     
  0.70165584999999997       0.71206597999999999        0.0000000000000000     
  0.70304188999999995       0.30176619999999998        0.0000000000000000     
  0.30920671999999999       0.71149227999999998        0.0000000000000000     
  0.79044983999999996       0.49884783999999999        0.0000000000000000     
  0.49102621000000002       0.20968644000000000        0.0000000000000000     
  0.49912957000000002       0.77208717000000004        0.0000000000000000     
  0.21724072999999999       0.48989389000000000        0.0000000000000000     
  0.83255933999999998       0.83046598000000005        0.0000000000000000     
  0.16646774000000000       0.17015694000000001        0.0000000000000000     
  0.83054514999999995       0.16736480000000001        0.0000000000000000     
  0.16953130999999999       0.83265739000000005        0.0000000000000000     
  0.42166445000000002       0.36345201999999999        0.0000000000000000     
  0.64462200999999997       0.56347807999999999        0.0000000000000000     
  0.35324633999999999       0.56311191000000005        0.0000000000000000     
  0.65456411000000003       0.84856860999999995        0.0000000000000000     
  0.35141477999999998       0.15563974000000000        0.0000000000000000     
  0.15290967000000000       0.35206625000000003        0.0000000000000000     
  0.82942241000000005       0.34936866000000000        0.0000000000000000     
  0.84390527000000004       0.64441694999999999        0.0000000000000000     
  0.63699174999999997       0.14284276000000001        0.0000000000000000     
  0.15620682999999999       0.64648446999999998        0.0000000000000000     
  0.36426062999999997       0.85756310999999996        0.0000000000000000     
  0.63489340999999999       0.40519052000000000        0.0000000000000000     
  0.52518872999999999       0.65957078000000002        0.0000000000000000     
  0.32158959999999998       0.42298103999999997        0.0000000000000000     
  0.58861710000000000       0.31711036999999997        0.0000000000000000     
  0.42078418000000001       0.69497151999999995        0.0000000000000000     
  0.48608786999999998       0.89334152000000000        0.0000000000000000     
   9.7084320000000002E-002  0.50000000000000000        0.0000000000000000     
  0.90291568000000000       0.50000000000000000        0.0000000000000000     
  0.51392453000000005       0.10668648999999999        0.0000000000000000     
  0.59792566999999996       0.73122754000000001        0.0000000000000000     
  0.74510058999999995       0.41124730999999998        0.0000000000000000     
  0.73212551999999997       0.90191560000000004        0.0000000000000000     
   9.7784830000000003E-002  0.26957329000000002        0.0000000000000000     
  0.26711221000000002        9.8671499999999995E-002   0.0000000000000000     
  0.90191560000000004       0.26787448000000003        0.0000000000000000     
  0.90118569000000004       0.73039821000000005        0.0000000000000000     
  0.73122947000000005        9.8017859999999998E-002   0.0000000000000000     
   9.8084400000000002E-002  0.73212551999999997        0.0000000000000000     
  0.26957329000000002       0.90221516999999996        0.0000000000000000     
  0.39283522999999998       0.25360379000000000        0.0000000000000000     
  0.74480864000000002       0.60495284999999999        0.0000000000000000     
  0.25505132000000003       0.60593640999999998        0.0000000000000000     
  0.52159297999999998       0.40671636000000000        0.0000000000000000     
  0.40768852000000000       0.47699891000000000        0.0000000000000000     
   9.1467049999999994E-002   9.1876959999999994E-002   0.0000000000000000     
  0.90842484999999995       0.90819225000000003        0.0000000000000000     
  0.90820104999999995        9.1566729999999999E-002   0.0000000000000000     
   9.1807449999999999E-002  0.90843574000000005        0.0000000000000000     
  0.27098960000000000       0.20527094000000001        0.0000000000000000     
  0.73457293999999995       0.79835387000000002        0.0000000000000000     
  0.79817773000000003       0.25713470999999999        0.0000000000000000     
  0.20747797000000001       0.72863946000000002        0.0000000000000000     
  0.20175195000000001       0.27583914999999998        0.0000000000000000     
  0.79603889000000005       0.72159035000000005        0.0000000000000000     
  0.71761666000000002       0.19748431999999999        0.0000000000000000     
  0.28462607000000001       0.80251899999999998        0.0000000000000000     
  0.69134598999999997       0.49261972999999998        0.0000000000000000     
  0.44720578999999999       0.58582935999999997        0.0000000000000000     
  0.24242269999999999       0.37228174000000003        0.0000000000000000     
  0.38265623999999998       0.93072131999999996        0.0000000000000000     
  0.60971754000000000       0.91988369000000003        0.0000000000000000     
   7.9163609999999995E-002  0.60979116000000000        0.0000000000000000     
  0.92010649000000000       0.61081183999999999        0.0000000000000000     
  0.61954008999999999        7.1530830000000004E-002   0.0000000000000000     
  0.91882012999999996       0.38917363999999999        0.0000000000000000     
  0.39086346000000000        8.0652249999999995E-002   0.0000000000000000     
   7.9183480000000001E-002  0.38966213000000000        0.0000000000000000     
  0.59114111999999996       0.49294315000000000        0.0000000000000000     
  0.63337980999999999       0.64485914000000000        0.0000000000000000     
  0.50012352000000004       0.29676539000000002        0.0000000000000000     
  0.82552601000000003       0.92753492000000004        0.0000000000000000     
  0.92774772999999999       0.82498556999999995        0.0000000000000000     
   7.1970870000000006E-002  0.17510291000000000        0.0000000000000000     
  0.17422821999999999        7.2635640000000001E-002   0.0000000000000000     
  0.82510813000000005        7.2134840000000006E-002   0.0000000000000000     
  0.92754665000000003       0.17446275999999999        0.0000000000000000     
  0.17501022999999999       0.92789951999999998        0.0000000000000000     
   7.2464680000000004E-002  0.82554053000000005        0.0000000000000000     
  0.30731587999999999       0.50885354999999999        0.0000000000000000     
  0.59033407999999998       0.22171178999999999        0.0000000000000000     
  0.40109191999999999       0.78725542000000004        0.0000000000000000     
  0.35420917000000002       0.63754104000000000        0.0000000000000000     
  0.15983976999999999       0.56665573000000002        0.0000000000000000     
  0.84108459999999996       0.56757886999999996        0.0000000000000000     
  0.83902096000000004       0.43344338999999998        0.0000000000000000     
  0.43230028999999998       0.16004268999999999        0.0000000000000000     
  0.57536027999999995       0.83041363999999995        0.0000000000000000     
  0.15771898000000001       0.42747892999999998        0.0000000000000000     
  0.34021692999999997       0.34221559000000001        0.0000000000000000     
  0.56002271999999997       0.57501117999999996        0.0000000000000000     
  0.65344329000000001       0.78147597999999996        0.0000000000000000     
   0.0000000000000000        0.0000000000000000        0.0000000000000000     
   1.0000000000000000        0.0000000000000000        0.0000000000000000     
   1.0000000000000000        1.0000000000000000        0.0000000000000000     
   0.0000000000000000        1.0000000000000000        0.0000000000000000     
  0.11111111000000000        0.0000000000000000        0.0000000000000000     
  0.22222222000000000        0.0000000000000000        0.0000000000000000     
  0.33333332999999998        0.0000000000000000        0.0000000000000000     
  0.44444444000000000        0.0000000000000000        0.0000000000000000     
  0.55555555999999995        0.0000000000000000        0.0000000000000000     
  0.66666667000000002        0.0000000000000000        0.0000000000000000     
  0.77777777999999997        0.0000000000000000        0.0000000000000000     
  0.88888889000000004        0.0000000000000000        0.0000000000000000     
   1.0000000000000000       0.11111111000000000        0.0000000000000000     
   1.0000000000000000       0.22222222000000000        0.0000000000000000     
   1.0000000000000000       0.33333332999999998        0.0000000000000000     
   1.0000000000000000       0.44444444000000000        0.0000000000000000     
   1.0000000000000000       0.55555555999999995        0.0000000000000000     
   1.0000000000000000       0.66666667000000002        0.0000000000000000     
   1.0000000000000000       0.77777777999999997        0.0000000000000000     
   1.0000000000000000       0.88888889000000004        0.0000000000000000     
  0.88888889000000004        1.0000000000000000        0.0000000000000000     
  0.77777777999999997        1.0000000000000000        0.0000000000000000     
  0.66666667000000002        1.0000000000000000        0.0000000000000000     
  0.55555555999999995        1.0000000000000000        0.0000000000000000     
  0.44444444000000000        1.0000000000000000        0.0000000000000000     
  0.33333332999999998        1.0000000000000000        0.0000000000000000     
  0.22222222000000000        1.0000000000000000        0.0000000000000000     
  0.11111111000000000        1.0000000000000000        0.0000000000000000     
   0.0000000000000000       0.11111111000000000        0.0000000000000000     
   0.0000000000000000       0.22222222000000000        0.0000000000000000     
[...]
 CELL_DATA         354
 SCALARS U float
 LOOKUP_TABLE default
    0.18955290156491141906E+00
    0.27364009932165517247E+00
    0.19455260165694659991E+00
    0.21792063643191167399E+00
    0.27062791716030454303E+00
    0.29568972734333154317E+00
    0.34130411777414404462E+00
    0.30857731389644538211E+00
    0.43007366761245213738E+00
    0.49829349556866908699E+00
    0.58754234903074253893E+00
    0.53966033382031697307E+00
    0.61617128063430182117E+00
    0.61323867349605354349E+00
    0.58566664196809303800E+00
    0.60950259565611608625E+00
    0.52543290390826746794E+00
    0.46775347372394493473E+00
    0.41313716270879047299E+00
    0.44499681147008296467E+00
    0.33851689576603988252E+00
    0.35470659319291275580E+00
    0.37998533888506730305E+00
    0.36225787253783858777E+00
    0.37432216142363267108E+00
    0.37077175587798960610E+00
    0.34525699771017026585E+00
    0.36354543306387232526E+00
    0.28594283082210480984E+00
    0.26271247931602226267E+00
    0.20331460766611286761E+00
    0.23510101616017384241E+00
    0.19531017393969576923E+00
    0.18943651756545726306E+00
    0.18892356248696018373E+00
    0.19034963693872702928E+00
    0.19519515108604590381E+00
    0.18403269133878544239E+00
    0.17621046240834958851E+00
    0.18125056832824767983E+00
    0.15606282511299779392E+00
    0.16116691961751053452E+00
    0.15534288147331534735E+00
    0.16023398417439024821E+00
    0.17081255000692122104E+00
    0.16781798220092669638E+00
    0.16669829451987785984E+00
    0.16065905318538131752E+00
    0.17975931497289926453E+00
    0.19136415295234115996E+00
    0.19563216588372700500E+00
    0.18388008736585928493E+00
    0.20059361237003836553E+00
    0.20381538435172663615E+00
    0.20022577384338643980E+00
    0.19292074016500154743E+00
    0.17631176813337415266E+00
    0.17931258827586923910E+00
    0.18196616303657933700E+00
    0.18873837381545732761E+00
    0.18032740273149572285E+00
    0.17463137911374837508E+00
    0.15616515880876052913E+00
    0.16922882542191761135E+00
    0.17183554437466086462E+00
    0.18297124298702946432E+00
    0.17737001568643598337E+00
    0.17514044905790765450E+00
    0.73441431031701964738E+00
    0.69977592968243074179E+00
    0.67858743115141473279E+00
    0.71203134530021450210E+00
    0.68239953592997504295E+00
    0.65988583253258026318E+00
    0.62456485401504191479E+00
    0.62576784738120672102E+00
    0.62528830709454252812E+00
    0.66264746649363037712E+00
    0.41456261785874315429E+00
    0.49210248751378254939E+00
    0.41159579131703516452E+00
    0.42069179283369312339E+00
    0.54089923868427525200E+00
    0.35612450944676932174E+00
    0.70681363166811783660E+00
    0.70772185139315391122E+00
    0.58006093836920868956E+00
    0.73735559312221610195E+00
    0.71757844685987060007E+00
    0.75240341554772161015E+00
    0.65655672142398247004E+00
    0.50281993832741211925E+00
    0.44750003731402338003E+00
    0.33975620242623416623E+00
    0.30712252545636170575E+00
    0.35420114489742893227E+00
    0.55330739089406000275E+00
    0.59549233921166078165E+00
    0.66956322458842665313E+00
    0.61706251544661105957E+00
    0.67562643631154029045E+00
    0.56655895569073888574E+00
    0.64613329434905608650E+00
    0.70591062053521913544E+00
    0.70277346015827468761E+00
    0.72216321235782787724E+00
    0.73024681910426336717E+00
    0.74697182397631667339E+00
    0.49532944612841139920E+00
    0.43487407927735416413E+00
    0.38346999347772947608E+00
    0.41880022349486334399E+00
    0.39479568201228742996E+00
    0.35944275212736342962E+00
    0.60763778715708760547E+00
    0.43733357365607816725E+00
    0.47901835570969569789E+00
    0.52018079500199854159E+00
    0.58512553248572363174E+00
    0.35478670167600923069E+00
    0.47109234620156936746E+00
    0.22559615429687301935E+00
    0.26067844362666936497E+00
    0.21521668195916576760E+00
    0.31697036381908338942E+00
    0.33665058281132598239E+00
    0.19028875877944381734E+00
    0.21326112455884860264E+00
    0.38362907611217922366E+00
    0.49522616581103662270E+00
    0.35205877372986438267E+00
    0.59373426535660411840E+00
    0.53597553025023181306E+00
    0.30596859622044869642E+00
    0.38545295317177291627E+00
    0.63205250063247842007E+00
    0.66073576803864697560E+00
    0.55757023281383444324E+00
    0.68802637510238651153E+00
    0.68512568213026936448E+00
    0.61504053099528022130E+00
    0.55614381209786634130E+00
    0.18332912582904611898E+00
    0.17252932659581909913E+00
    0.17774956843193556733E+00
    0.23953556509622286885E+00
    0.22704050485256366265E+00
    0.16419576227470428220E+00
    0.16499638854369028107E+00
    0.68513700804086030693E+00
    0.73011223322746232611E+00
    0.72587129916025006082E+00
    0.70038859669271125163E+00
    0.73195253849821839687E+00
    0.71058846962992616714E+00
    0.65486685636120212095E+00
    0.68497389010831943867E+00
    0.68680751937704309640E+00
    0.65774783580459605936E+00
    0.64914945396496759322E+00
    0.59793938825693770944E+00
    0.58391403940729402766E+00
    0.59441687810309895568E+00
    0.58945699239960713811E+00
    0.57610965396043090081E+00
    0.30941124245089057787E+00
    0.36673818624731052696E+00
    0.32355726698502751404E+00
    0.31709577252671194980E+00
    0.35116777078555361236E+00
    0.65791415684202914083E+00
    0.68583919996386899509E+00
    0.64506562364340913618E+00
    0.67677194901661263948E+00
    0.68726797983984955209E+00
    0.47956015954316083549E+00
    0.50520228128379851551E+00
    0.46934030830037809512E+00
    0.47278891399002509477E+00
    0.45172828014909410799E+00
    0.69888260063900298213E+00
    0.67222012910473583069E+00
    0.68868843524992284788E+00
    0.65540401799986180986E+00
    0.65881052934497530416E+00
    0.48490465824276662854E+00
    0.48439644394559705498E+00
    0.43553215954490159811E+00
    0.51076687836262890663E+00
    0.49849452487091827635E+00
    0.74022481592727296107E+00
    0.69592971393764979648E+00
    0.73411598517674558906E+00
    0.73958766144791254771E+00
    0.73700390843610685820E+00
    0.30483654117055858368E+00
    0.31625364696755042804E+00
    0.28285929485184596599E+00
    0.33328313022722699799E+00
    0.32998898241204133175E+00
    0.18796542416620662386E+00
    0.24077188742051941484E+00
    0.23939089881223807321E+00
    0.20273212396032727622E+00
    0.22315426437485577638E+00
    0.66138576561880768612E+00
    0.74899933134449525607E+00
    0.72052534513719390663E+00
    0.71795255989414141773E+00
    0.73479936652954114251E+00
    0.54416742569260423412E+00
    0.50558095297022298542E+00
    0.61005922409029933462E+00
    0.58445260663167919457E+00
    0.63096285136314111952E+00
    0.67084695362739954483E+00
    0.63931148979439189617E+00
    0.61529915346969288326E+00
    0.64901812180495155324E+00
    0.62640286398653799438E+00
    0.53968138718067759640E+00
    0.50882011448181918567E+00
    0.53099247325659559849E+00
    0.40040973940963053845E+00
    0.51377522629961236422E+00
    0.18520160500761778666E+00
    0.22712967979934009510E+00
    0.30619553774435492866E+00
    0.31176334402983224559E+00
    0.29278766605867101447E+00
    0.33803642341427020401E+00
    0.34416716827811777435E+00
    0.47562384075879809986E+00
    0.46663407852596139325E+00
    0.57103988395019000812E+00
    0.55259855826104831156E+00
    0.64666960626153524583E+00
    0.73650675069558635411E+00
    0.67095798275224383111E+00
    0.68606386817096853825E+00
    0.71611026755890749840E+00
    0.52517440945526727702E+00
    0.39011814227066538008E+00
    0.37432631411196942706E+00
    0.70971867078108741289E+00
    0.67044418093757529586E+00
    0.29722286207338771691E+00
    0.24472437175464678560E+00
    0.18792304783700700122E+00
    0.49209912253141063765E+00
    0.35134380551426208639E+00
    0.27608724969133691118E+00
    0.62390810569312005196E+00
    0.63376757086935842089E+00
    0.39050891350247629585E+00
    0.68017598659957578811E+00
    0.59358456135436243883E+00
    0.54180661517538630800E+00
    0.38289778830373577545E+00
    0.40730299126574343038E+00
    0.21557751226399374245E+00
    0.69643861757294178716E+00
    0.68434911384351715391E+00
    0.61373272978762993812E+00
    0.25497994960886066762E+00
    0.25596932315438525318E+00
    0.17084615457947358030E+00
    0.22770175474077086752E+00
    0.20104193550886007014E+00
    0.16340673755856072180E+00
    0.64320123081585045544E+00
    0.68685809277595488709E+00
    0.72612274232708584609E+00
    0.71649227585326946688E+00
    0.43412227491015004111E+00
    0.64996619423361190471E+00
    0.61702865989714594797E+00
    0.55264516314116907125E+00
    0.31859904882692130501E+00
    0.61117854427319939781E+00
    0.55342156528052621756E+00
    0.34769837207507303667E+00
    0.70478322685536309855E+00
    0.74842351794237571561E+00
    0.66886040755537579106E+00
    0.64931557808109541252E+00
    0.59800631564589101785E+00
    0.28867179240927814954E+00
    0.35462190895790418610E+00
    0.19392627062308048780E+00
    0.20991238138479323405E+00
    0.55453850301122442623E+00
    0.49952143535953008602E+00
    0.16154092513360684968E+00
    0.16331695413243871307E+00
    0.61556346506795389661E+00
    0.39556344882769045590E+00
    0.39809898760456707834E+00
    0.70911497443313975531E+00
    0.29012897345399252247E+00
    0.55824173570033053249E+00
    0.76740989504029044621E+00
    0.25303770621374965799E+00
    0.70374368261488284837E+00
    0.52347112028716735743E+00
    0.64655816167924573534E+00
    0.42407091747927094794E+00
    0.63627957720173100586E+00
    0.30636025568439517741E+00
    0.34567778662423076508E+00
    0.52172386730198549998E+00
    0.64206264209216867833E+00
    0.67836828686763261942E+00
    0.45214281328786498637E+00
    0.67327874269706566857E+00
    0.64275206545037844030E+00
    0.63279987987170371877E+00
    0.35733128208725134511E+00
    0.21590735682652770211E+00
    0.15358270040434837678E+00
    0.28584862525206977679E+00
    0.22123823804828868234E+00
    0.19001287541965300454E+00
    0.19362212969496772619E+00
    0.22243901072372065930E+00
    0.20245485315950459415E+00
    0.26664018480387441379E+00
    0.30354671485443612822E+00
    0.41167266802971402839E+00
    0.50656806318425096070E+00
    0.51228855538378370582E+00
    0.45730918840100370781E+00
    0.36745870044779171959E+00
    0.24977775643074914824E+00
    0.25551152724554671014E+00
    0.24459224063324760956E+00
    0.22083248955039430639E+00
    0.18979063100453022472E+00
    0.17064326604886764782E+00
    0.18888697362664347290E+00
    0.17768272258789416518E+00
    0.15387059594918323091E+00
    0.14769550053453603389E+00
    0.14686334488800451004E+00
    0.16337983585400886466E+00
    0.17862027545257563865E+00
    0.20674956046700881940E+00
    0.15055849769647317027E+00
    0.13895132747849833765E+00
    0.13734494462453084029E+00
    0.14166065649009007554E+00
    0.14977033092607630604E+00
    0.15972352734942824037E+00
    0.19283103182394495390E+00
