# vtk DataFile Version 3.0
LAPLACIEN  2D
ASCII
DATASET UNSTRUCTURED_GRID
 POINTS         391  float
  0.50371505999999999       0.50367786999999997        0.0000000000000000     
  0.29013556000000001       0.29014535000000002        0.0000000000000000     
  0.70165584999999997       0.71206597999999999        0.0000000000000000     
  0.70304188999999995       0.30176619999999998        0.0000000000000000     
  0.30920671999999999       0.71149227999999998        0.0000000000000000     
  0.79044983999999996       0.49884783999999999        0.0000000000000000     
  0.49102621000000002       0.20968644000000000        0.0000000000000000     
  0.49912957000000002       0.77208717000000004        0.0000000000000000     
  0.21724072999999999       0.48989389000000000        0.0000000000000000     
  0.83255933999999998       0.83046598000000005        0.0000000000000000     
  0.16646774000000000       0.17015694000000001        0.0000000000000000     
  0.83054514999999995       0.16736480000000001        0.0000000000000000     
  0.16953130999999999       0.83265739000000005        0.0000000000000000     
  0.42166445000000002       0.36345201999999999        0.0000000000000000     
  0.64462200999999997       0.56347807999999999        0.0000000000000000     
  0.35324633999999999       0.56311191000000005        0.0000000000000000     
  0.65456411000000003       0.84856860999999995        0.0000000000000000     
  0.35141477999999998       0.15563974000000000        0.0000000000000000     
  0.15290967000000000       0.35206625000000003        0.0000000000000000     
  0.82942241000000005       0.34936866000000000        0.0000000000000000     
  0.84390527000000004       0.64441694999999999        0.0000000000000000     
  0.63699174999999997       0.14284276000000001        0.0000000000000000     
  0.15620682999999999       0.64648446999999998        0.0000000000000000     
  0.36426062999999997       0.85756310999999996        0.0000000000000000     
  0.63489340999999999       0.40519052000000000        0.0000000000000000     
  0.52518872999999999       0.65957078000000002        0.0000000000000000     
  0.32158959999999998       0.42298103999999997        0.0000000000000000     
  0.58861710000000000       0.31711036999999997        0.0000000000000000     
  0.42078418000000001       0.69497151999999995        0.0000000000000000     
  0.48608786999999998       0.89334152000000000        0.0000000000000000     
   9.7084320000000002E-002  0.50000000000000000        0.0000000000000000     
  0.90291568000000000       0.50000000000000000        0.0000000000000000     
  0.51392453000000005       0.10668648999999999        0.0000000000000000     
  0.59792566999999996       0.73122754000000001        0.0000000000000000     
  0.74510058999999995       0.41124730999999998        0.0000000000000000     
  0.73212551999999997       0.90191560000000004        0.0000000000000000     
   9.7784830000000003E-002  0.26957329000000002        0.0000000000000000     
  0.26711221000000002        9.8671499999999995E-002   0.0000000000000000     
  0.90191560000000004       0.26787448000000003        0.0000000000000000     
  0.90118569000000004       0.73039821000000005        0.0000000000000000     
  0.73122947000000005        9.8017859999999998E-002   0.0000000000000000     
   9.8084400000000002E-002  0.73212551999999997        0.0000000000000000     
  0.26957329000000002       0.90221516999999996        0.0000000000000000     
  0.39283522999999998       0.25360379000000000        0.0000000000000000     
  0.74480864000000002       0.60495284999999999        0.0000000000000000     
  0.25505132000000003       0.60593640999999998        0.0000000000000000     
  0.52159297999999998       0.40671636000000000        0.0000000000000000     
  0.40768852000000000       0.47699891000000000        0.0000000000000000     
   9.1467049999999994E-002   9.1876959999999994E-002   0.0000000000000000     
  0.90842484999999995       0.90819225000000003        0.0000000000000000     
  0.90820104999999995        9.1566729999999999E-002   0.0000000000000000     
   9.1807449999999999E-002  0.90843574000000005        0.0000000000000000     
  0.27098960000000000       0.20527094000000001        0.0000000000000000     
  0.73457293999999995       0.79835387000000002        0.0000000000000000     
  0.79817773000000003       0.25713470999999999        0.0000000000000000     
  0.20747797000000001       0.72863946000000002        0.0000000000000000     
  0.20175195000000001       0.27583914999999998        0.0000000000000000     
  0.79603889000000005       0.72159035000000005        0.0000000000000000     
  0.71761666000000002       0.19748431999999999        0.0000000000000000     
  0.28462607000000001       0.80251899999999998        0.0000000000000000     
  0.69134598999999997       0.49261972999999998        0.0000000000000000     
  0.44720578999999999       0.58582935999999997        0.0000000000000000     
  0.24242269999999999       0.37228174000000003        0.0000000000000000     
  0.38265623999999998       0.93072131999999996        0.0000000000000000     
  0.60971754000000000       0.91988369000000003        0.0000000000000000     
   7.9163609999999995E-002  0.60979116000000000        0.0000000000000000     
  0.92010649000000000       0.61081183999999999        0.0000000000000000     
  0.61954008999999999        7.1530830000000004E-002   0.0000000000000000     
  0.91882012999999996       0.38917363999999999        0.0000000000000000     
  0.39086346000000000        8.0652249999999995E-002   0.0000000000000000     
   7.9183480000000001E-002  0.38966213000000000        0.0000000000000000     
  0.59114111999999996       0.49294315000000000        0.0000000000000000     
  0.63337980999999999       0.64485914000000000        0.0000000000000000     
  0.50012352000000004       0.29676539000000002        0.0000000000000000     
  0.82552601000000003       0.92753492000000004        0.0000000000000000     
  0.92774772999999999       0.82498556999999995        0.0000000000000000     
   7.1970870000000006E-002  0.17510291000000000        0.0000000000000000     
  0.17422821999999999        7.2635640000000001E-002   0.0000000000000000     
  0.82510813000000005        7.2134840000000006E-002   0.0000000000000000     
  0.92754665000000003       0.17446275999999999        0.0000000000000000     
  0.17501022999999999       0.92789951999999998        0.0000000000000000     
   7.2464680000000004E-002  0.82554053000000005        0.0000000000000000     
  0.30731587999999999       0.50885354999999999        0.0000000000000000     
  0.59033407999999998       0.22171178999999999        0.0000000000000000     
  0.40109191999999999       0.78725542000000004        0.0000000000000000     
  0.35420917000000002       0.63754104000000000        0.0000000000000000     
  0.15983976999999999       0.56665573000000002        0.0000000000000000     
  0.84108459999999996       0.56757886999999996        0.0000000000000000     
  0.83902096000000004       0.43344338999999998        0.0000000000000000     
  0.43230028999999998       0.16004268999999999        0.0000000000000000     
  0.57536027999999995       0.83041363999999995        0.0000000000000000     
  0.15771898000000001       0.42747892999999998        0.0000000000000000     
  0.34021692999999997       0.34221559000000001        0.0000000000000000     
  0.56002271999999997       0.57501117999999996        0.0000000000000000     
  0.65344329000000001       0.78147597999999996        0.0000000000000000     
   0.0000000000000000        0.0000000000000000        0.0000000000000000     
   1.0000000000000000        0.0000000000000000        0.0000000000000000     
   1.0000000000000000        1.0000000000000000        0.0000000000000000     
   0.0000000000000000        1.0000000000000000        0.0000000000000000     
  0.11111111000000000        0.0000000000000000        0.0000000000000000     
  0.22222222000000000        0.0000000000000000        0.0000000000000000     
  0.33333332999999998        0.0000000000000000        0.0000000000000000     
  0.44444444000000000        0.0000000000000000        0.0000000000000000     
  0.55555555999999995        0.0000000000000000        0.0000000000000000     
  0.66666667000000002        0.0000000000000000        0.0000000000000000     
  0.77777777999999997        0.0000000000000000        0.0000000000000000     
  0.88888889000000004        0.0000000000000000        0.0000000000000000     
   1.0000000000000000       0.11111111000000000        0.0000000000000000     
   1.0000000000000000       0.22222222000000000        0.0000000000000000     
   1.0000000000000000       0.33333332999999998        0.0000000000000000     
   1.0000000000000000       0.44444444000000000        0.0000000000000000     
   1.0000000000000000       0.55555555999999995        0.0000000000000000     
   1.0000000000000000       0.66666667000000002        0.0000000000000000     
   1.0000000000000000       0.77777777999999997        0.0000000000000000     
   1.0000000000000000       0.88888889000000004        0.0000000000000000     
  0.88888889000000004        1.0000000000000000        0.0000000000000000     
  0.77777777999999997        1.0000000000000000        0.0000000000000000     
  0.66666667000000002        1.0000000000000000        0.0000000000000000     
  0.55555555999999995        1.0000000000000000        0.0000000000000000     
  0.44444444000000000        1.0000000000000000        0.0000000000000000     
  0.33333332999999998        1.0000000000000000        0.0000000000000000     
  0.22222222000000000        1.0000000000000000        0.0000000000000000     
  0.11111111000000000        1.0000000000000000        0.0000000000000000     
   0.0000000000000000       0.11111111000000000        0.0000000000000000     
   0.0000000000000000       0.22222222000000000        0.0000000000000000     
[...]
 CELL_DATA         354
 SCALARS U float
 LOOKUP_TABLE default
    0.13366254956293330269E+00
    0.20650618758499114658E+00
    0.17408732414251684717E+00
    0.23406940772676126938E+00
    0.19718358906471095127E+00
    0.23280517626480445870E+00
    0.28955130063849360278E+00
    0.24631599979758422858E+00
    0.41356124678939998329E+00
    0.48380255620686185569E+00
    0.58655178306178201719E+00
    0.53621587608926002400E+00
    0.62322597643587374083E+00
    0.62591339131805234786E+00
    0.59404159531096911717E+00
    0.62175250233009105028E+00
    0.51320488049864798619E+00
    0.44259532912658999804E+00
    0.37002494221260451290E+00
    0.41315968915399409189E+00
    0.26590408630655171240E+00
    0.27672305188757323480E+00
    0.31218824100403463895E+00
    0.29190291178611993406E+00
    0.31422863366124448303E+00
    0.31223683317170375373E+00
    0.28537611597124279417E+00
    0.30217122629089104846E+00
    0.21767928874546027540E+00
    0.19435952386727978203E+00
    0.14281390557126838470E+00
    0.17279457732030661932E+00
    0.14838797201172640450E+00
    0.13759250435424089098E+00
    0.15448285456825674999E+00
    0.14948480490333934667E+00
    0.16918222561338785992E+00
    0.14857034737990623685E+00
    0.13023244270655695565E+00
    0.13742830785819537542E+00
    0.10573152106294553265E+00
    0.11192367743186307227E+00
    0.10500222674425292724E+00
    0.10996554117881450485E+00
    0.12126084745861009928E+00
    0.11554121111647183695E+00
    0.12559953068259310793E+00
    0.11559694701494364899E+00
    0.14668457898930575833E+00
    0.17354385605669137016E+00
    0.19639886082125207478E+00
    0.17131849006930793822E+00
    0.13317238329625000204E+00
    0.12959334336365099793E+00
    0.13007552229175872727E+00
    0.11800302718802831159E+00
    0.11486745111438213807E+00
    0.11808296814294769184E+00
    0.11805824740487695645E+00
    0.12413575893156875152E+00
    0.12471958474354265245E+00
    0.11672680261704165838E+00
    0.10586812125451054711E+00
    0.11873952968321804802E+00
    0.13385743435108099497E+00
    0.15321516092268427922E+00
    0.16071254137693233299E+00
    0.15219951250963842382E+00
    0.75366692565622150912E+00
    0.74197693859572699804E+00
    0.73269107361961471891E+00
    0.74179810689572633908E+00
    0.72900818377162490691E+00
    0.69365987733434497642E+00
    0.67355996959872244112E+00
    0.69224065108666155144E+00
    0.68438977972385250936E+00
    0.71203298556349303716E+00
    0.42208200175000482046E+00
    0.54303403559744534146E+00
    0.42755536050508358148E+00
    0.43886283529927144764E+00
    0.60260433724243622766E+00
    0.35310308581335658751E+00
    0.72262584794340434247E+00
    0.63339506336502537920E+00
    0.39775521253699569479E+00
    0.74233136183651105000E+00
    0.72974668344555659871E+00
    0.70491416621763547390E+00
    0.52579497348632497911E+00
    0.54412271632263131682E+00
    0.49089087241230733305E+00
    0.32671692960035658704E+00
    0.27272760896697989530E+00
    0.34057827434583315407E+00
    0.62716684569832004126E+00
    0.65287195919814766665E+00
    0.70763282634223911849E+00
    0.67686404259515087212E+00
    0.72487594424909729263E+00
    0.62416476032982382005E+00
    0.69621888882302607193E+00
    0.69743808648595095878E+00
    0.68861127216852346944E+00
    0.59056651939267412743E+00
    0.60589641623047441055E+00
    0.76842942396514946068E+00
    0.55234499225607769368E+00
    0.47281050341042307750E+00
    0.34290366099545155354E+00
    0.43277645837651190774E+00
    0.36916010733249560172E+00
    0.34179300331419398828E+00
    0.66768128418824912451E+00
    0.45500313933008018630E+00
    0.52547058940805735361E+00
    0.56836581522248608156E+00
    0.65014944773845539938E+00
    0.36054716287170873734E+00
    0.51475707180813989883E+00
    0.17321310004717513364E+00
    0.20974105128179174051E+00
    0.17344390229137893189E+00
    0.27000772918426674263E+00
    0.29006757096723417844E+00
    0.15115972274171649015E+00
    0.17185531460129174763E+00
    0.35028866300265681932E+00
    0.54135904589252736852E+00
    0.30516002389039187381E+00
    0.66385211103112018449E+00
    0.57708879955622416347E+00
    0.24430674773836522085E+00
    0.37750055161618079058E+00
    0.69167452086515412990E+00
    0.70780551913853984036E+00
    0.59470642365726122947E+00
    0.73625253980255522812E+00
    0.71840384364891096691E+00
    0.66912786272420532452E+00
    0.59536852891870506443E+00
    0.13620565583367544304E+00
    0.12601233237772122009E+00
    0.14099829611304412480E+00
    0.18537163098153081053E+00
    0.17129675825207166251E+00
    0.12709905983008307206E+00
    0.12775763866441205985E+00
    0.71855540291795982899E+00
    0.75110406863910395003E+00
    0.69601433616689833972E+00
    0.72958655949413364628E+00
    0.69124447235373143172E+00
    0.73822882109715548538E+00
    0.71164478783143714224E+00
    0.73346614179972036140E+00
    0.72470823574102838371E+00
    0.71996630910523173874E+00
    0.69611564067088471663E+00
    0.67118637313885254336E+00
    0.61686477799796290977E+00
    0.65268687337886599487E+00
    0.63194624347079708659E+00
    0.65196595866214679393E+00
    0.25565289779883693111E+00
    0.36859821223803657109E+00
    0.27415391280066625512E+00
    0.29914949640100385597E+00
    0.35371315819641158118E+00
    0.72150456654261962974E+00
    0.72472315946953791421E+00
    0.70195024997427568625E+00
    0.73112919183562297132E+00
    0.72837311697800333210E+00
    0.44197077132304213309E+00
    0.56304839130428308014E+00
    0.49567450389926448473E+00
    0.43607515070398200629E+00
    0.47333721337854106626E+00
    0.73669022059733246799E+00
    0.72769943361809930060E+00
    0.73028414570702016029E+00
    0.71196245861690254930E+00
    0.71088836230719953946E+00
    0.48702666165165237055E+00
    0.51718367208983273553E+00
    0.44539882935128144448E+00
    0.53080107388543029678E+00
    0.54899245492120440915E+00
    0.76592182689219645564E+00
    0.72260886628299436651E+00
    0.74825840616119920767E+00
    0.76991802803062692195E+00
    0.73669079090967792833E+00
    0.25183547312584531053E+00
    0.29054970916148126214E+00
    0.24635937469610424966E+00
    0.29593394244860010689E+00
    0.30717744515131428784E+00
    0.14299215521149183372E+00
    0.18992225676905552523E+00
    0.19668377246137794256E+00
    0.15398161755201006384E+00
    0.17749224495872253926E+00
    0.49556382962782874468E+00
    0.75892185367311404409E+00
    0.66208526092637787208E+00
    0.73118519395610914735E+00
    0.74112923437767830315E+00
    0.61488010581960372836E+00
    0.56017307511492997474E+00
    0.67774600534965123710E+00
    0.65916931105681475511E+00
    0.69625900153877284815E+00
    0.72100054434610560961E+00
    0.69578269324035968424E+00
    0.67530730113267689596E+00
    0.68827588861611488369E+00
    0.43616586111041910634E+00
    0.33495345119687114366E+00
    0.32701514081721699823E+00
    0.57332043538529819937E+00
    0.40484124852948866202E+00
    0.55574311932584263829E+00
    0.14072964155957026766E+00
    0.16374797116455985790E+00
    0.25272672782334337782E+00
    0.25576666620145316333E+00
    0.23018305675496938956E+00
    0.26154256777226059238E+00
    0.29950723290081343597E+00
    0.45761406071226995440E+00
    0.44818183014459117564E+00
    0.58746782941875941297E+00
    0.58896740614362619315E+00
    0.70721946589830309016E+00
    0.77400437640409880391E+00
    0.71062172330481332416E+00
    0.66451748690943235331E+00
    0.74759596105792758269E+00
    0.57920775440177429960E+00
    0.39007550155384551616E+00
    0.37313149822998065153E+00
    0.74329470306177147787E+00
    0.71108592315237562076E+00
    0.25142271037422103674E+00
    0.18147832791117576856E+00
    0.14716809702261907100E+00
    0.51521249806809832350E+00
    0.25918560488369979389E+00
    0.19978130517079376038E+00
    0.69414439988254650338E+00
    0.68592228433169466495E+00
    0.38001626866138887850E+00
    0.73485792967165908252E+00
    0.61461399114560932855E+00
    0.54885936821621561510E+00
    0.35720077873797817514E+00
    0.37439262208999746218E+00
    0.17419826617779193834E+00
    0.72460749702728899369E+00
    0.72744362666040374155E+00
    0.65119470911529997448E+00
    0.20595557090285798729E+00
    0.20025370134253203669E+00
    0.13419995151038086045E+00
    0.17946871356657059793E+00
    0.15191875831742682190E+00
    0.12661190242179518051E+00
    0.67798456468502865668E+00
    0.65296906161961787429E+00
    0.75795749982223981078E+00
    0.75278059865966018283E+00
    0.44657308409870277721E+00
    0.70217913954236910179E+00
    0.69560755675178520541E+00
    0.61083950428292854706E+00
    0.30652223281432044999E+00
    0.67679496303855279926E+00
    0.63718375002080474001E+00
    0.34374338668186699142E+00
    0.71896952581275941352E+00
    0.75677960040774461259E+00
    0.53177879261243465869E+00
    0.70178506115836847279E+00
    0.63346670917771885634E+00
    0.21360775442346160991E+00
    0.30088127943350256865E+00
    0.15616305628953452977E+00
    0.16929323763825085414E+00
    0.58415623659400661705E+00
    0.47671784292458219134E+00
    0.12681049181178680185E+00
    0.12765538666617701202E+00
    0.68963578225393851184E+00
    0.39432824026329582612E+00
    0.41437857449553250344E+00
    0.73391346002867052789E+00
    0.24403064986466777020E+00
    0.62166646125014835000E+00
    0.70957705223173739295E+00
    0.21108216018229680744E+00
    0.73208327145603058206E+00
    0.56384753643460472361E+00
    0.70697562808439218252E+00
    0.43815987014220492135E+00
    0.68764078618600588122E+00
    0.25738896464518257190E+00
    0.30325171457628802285E+00
    0.55105224556142395897E+00
    0.70107267207759638161E+00
    0.72060471065102404964E+00
    0.43140317342651057775E+00
    0.70707173317737992413E+00
    0.70787181702904866665E+00
    0.45689181764565722776E+00
    0.35315114989073254081E+00
    0.15277781689196176518E+00
    0.98723103060840741718E-01
    0.20613715797744691649E+00
    0.14297651144675407875E+00
    0.17022623985873838737E+00
    0.18135323556250063093E+00
    0.25294560071133487256E+00
    0.21455536702972238805E+00
    0.20517305964958609810E+00
    0.23364533436596984783E+00
    0.35262355556099378440E+00
    0.47784520526862939160E+00
    0.48424913666809099588E+00
    0.41402795905208167326E+00
    0.30237222944506808586E+00
    0.16004601280292943266E+00
    0.15999880247110237486E+00
    0.14843199705439616420E+00
    0.13269427775768194433E+00
    0.11123403520107351394E+00
    0.11130112438656457330E+00
    0.14583035306401709308E+00
    0.14461100828331055479E+00
    0.10749368672509966582E+00
    0.95319633393791569631E-01
    0.97845076412649348296E-01
    0.12028354279251880776E+00
    0.15110259197350064952E+00
    0.21054960779210130095E+00
    0.84328432643495501719E-01
    0.71294098984056294976E-01
    0.68888679360021617959E-01
    0.78144481356844486264E-01
    0.91523832657413539682E-01
    0.11874080888412602564E+00
    0.18023267220974603653E+00
