# vtk DataFile Version 3.0
LAPLACIEN  2D
ASCII
DATASET UNSTRUCTURED_GRID
 POINTS         391  float
  0.50371505999999999       0.50367786999999997        0.0000000000000000     
  0.29013556000000001       0.29014535000000002        0.0000000000000000     
  0.70165584999999997       0.71206597999999999        0.0000000000000000     
  0.70304188999999995       0.30176619999999998        0.0000000000000000     
  0.30920671999999999       0.71149227999999998        0.0000000000000000     
  0.79044983999999996       0.49884783999999999        0.0000000000000000     
  0.49102621000000002       0.20968644000000000        0.0000000000000000     
  0.49912957000000002       0.77208717000000004        0.0000000000000000     
  0.21724072999999999       0.48989389000000000        0.0000000000000000     
  0.83255933999999998       0.83046598000000005        0.0000000000000000     
  0.16646774000000000       0.17015694000000001        0.0000000000000000     
  0.83054514999999995       0.16736480000000001        0.0000000000000000     
  0.16953130999999999       0.83265739000000005        0.0000000000000000     
  0.42166445000000002       0.36345201999999999        0.0000000000000000     
  0.64462200999999997       0.56347807999999999        0.0000000000000000     
  0.35324633999999999       0.56311191000000005        0.0000000000000000     
  0.65456411000000003       0.84856860999999995        0.0000000000000000     
  0.35141477999999998       0.15563974000000000        0.0000000000000000     
  0.15290967000000000       0.35206625000000003        0.0000000000000000     
  0.82942241000000005       0.34936866000000000        0.0000000000000000     
  0.84390527000000004       0.64441694999999999        0.0000000000000000     
  0.63699174999999997       0.14284276000000001        0.0000000000000000     
  0.15620682999999999       0.64648446999999998        0.0000000000000000     
  0.36426062999999997       0.85756310999999996        0.0000000000000000     
  0.63489340999999999       0.40519052000000000        0.0000000000000000     
  0.52518872999999999       0.65957078000000002        0.0000000000000000     
  0.32158959999999998       0.42298103999999997        0.0000000000000000     
  0.58861710000000000       0.31711036999999997        0.0000000000000000     
  0.42078418000000001       0.69497151999999995        0.0000000000000000     
  0.48608786999999998       0.89334152000000000        0.0000000000000000     
   9.7084320000000002E-002  0.50000000000000000        0.0000000000000000     
  0.90291568000000000       0.50000000000000000        0.0000000000000000     
  0.51392453000000005       0.10668648999999999        0.0000000000000000     
  0.59792566999999996       0.73122754000000001        0.0000000000000000     
  0.74510058999999995       0.41124730999999998        0.0000000000000000     
  0.73212551999999997       0.90191560000000004        0.0000000000000000     
   9.7784830000000003E-002  0.26957329000000002        0.0000000000000000     
  0.26711221000000002        9.8671499999999995E-002   0.0000000000000000     
  0.90191560000000004       0.26787448000000003        0.0000000000000000     
  0.90118569000000004       0.73039821000000005        0.0000000000000000     
  0.73122947000000005        9.8017859999999998E-002   0.0000000000000000     
   9.8084400000000002E-002  0.73212551999999997        0.0000000000000000     
  0.26957329000000002       0.90221516999999996        0.0000000000000000     
  0.39283522999999998       0.25360379000000000        0.0000000000000000     
  0.74480864000000002       0.60495284999999999        0.0000000000000000     
  0.25505132000000003       0.60593640999999998        0.0000000000000000     
  0.52159297999999998       0.40671636000000000        0.0000000000000000     
  0.40768852000000000       0.47699891000000000        0.0000000000000000     
   9.1467049999999994E-002   9.1876959999999994E-002   0.0000000000000000     
  0.90842484999999995       0.90819225000000003        0.0000000000000000     
  0.90820104999999995        9.1566729999999999E-002   0.0000000000000000     
   9.1807449999999999E-002  0.90843574000000005        0.0000000000000000     
  0.27098960000000000       0.20527094000000001        0.0000000000000000     
  0.73457293999999995       0.79835387000000002        0.0000000000000000     
  0.79817773000000003       0.25713470999999999        0.0000000000000000     
  0.20747797000000001       0.72863946000000002        0.0000000000000000     
  0.20175195000000001       0.27583914999999998        0.0000000000000000     
  0.79603889000000005       0.72159035000000005        0.0000000000000000     
  0.71761666000000002       0.19748431999999999        0.0000000000000000     
  0.28462607000000001       0.80251899999999998        0.0000000000000000     
  0.69134598999999997       0.49261972999999998        0.0000000000000000     
  0.44720578999999999       0.58582935999999997        0.0000000000000000     
  0.24242269999999999       0.37228174000000003        0.0000000000000000     
  0.38265623999999998       0.93072131999999996        0.0000000000000000     
  0.60971754000000000       0.91988369000000003        0.0000000000000000     
   7.9163609999999995E-002  0.60979116000000000        0.0000000000000000     
  0.92010649000000000       0.61081183999999999        0.0000000000000000     
  0.61954008999999999        7.1530830000000004E-002   0.0000000000000000     
  0.91882012999999996       0.38917363999999999        0.0000000000000000     
  0.39086346000000000        8.0652249999999995E-002   0.0000000000000000     
   7.9183480000000001E-002  0.38966213000000000        0.0000000000000000     
  0.59114111999999996       0.49294315000000000        0.0000000000000000     
  0.63337980999999999       0.64485914000000000        0.0000000000000000     
  0.50012352000000004       0.29676539000000002        0.0000000000000000     
  0.82552601000000003       0.92753492000000004        0.0000000000000000     
  0.92774772999999999       0.82498556999999995        0.0000000000000000     
   7.1970870000000006E-002  0.17510291000000000        0.0000000000000000     
  0.17422821999999999        7.2635640000000001E-002   0.0000000000000000     
  0.82510813000000005        7.2134840000000006E-002   0.0000000000000000     
  0.92754665000000003       0.17446275999999999        0.0000000000000000     
  0.17501022999999999       0.92789951999999998        0.0000000000000000     
   7.2464680000000004E-002  0.82554053000000005        0.0000000000000000     
  0.30731587999999999       0.50885354999999999        0.0000000000000000     
  0.59033407999999998       0.22171178999999999        0.0000000000000000     
  0.40109191999999999       0.78725542000000004        0.0000000000000000     
  0.35420917000000002       0.63754104000000000        0.0000000000000000     
  0.15983976999999999       0.56665573000000002        0.0000000000000000     
  0.84108459999999996       0.56757886999999996        0.0000000000000000     
  0.83902096000000004       0.43344338999999998        0.0000000000000000     
  0.43230028999999998       0.16004268999999999        0.0000000000000000     
  0.57536027999999995       0.83041363999999995        0.0000000000000000     
  0.15771898000000001       0.42747892999999998        0.0000000000000000     
  0.34021692999999997       0.34221559000000001        0.0000000000000000     
  0.56002271999999997       0.57501117999999996        0.0000000000000000     
  0.65344329000000001       0.78147597999999996        0.0000000000000000     
   0.0000000000000000        0.0000000000000000        0.0000000000000000     
   1.0000000000000000        0.0000000000000000        0.0000000000000000     
   1.0000000000000000        1.0000000000000000        0.0000000000000000     
   0.0000000000000000        1.0000000000000000        0.0000000000000000     
  0.11111111000000000        0.0000000000000000        0.0000000000000000     
  0.22222222000000000        0.0000000000000000        0.0000000000000000     
  0.33333332999999998        0.0000000000000000        0.0000000000000000     
  0.44444444000000000        0.0000000000000000        0.0000000000000000     
  0.55555555999999995        0.0000000000000000        0.0000000000000000     
  0.66666667000000002        0.0000000000000000        0.0000000000000000     
  0.77777777999999997        0.0000000000000000        0.0000000000000000     
  0.88888889000000004        0.0000000000000000        0.0000000000000000     
   1.0000000000000000       0.11111111000000000        0.0000000000000000     
   1.0000000000000000       0.22222222000000000        0.0000000000000000     
   1.0000000000000000       0.33333332999999998        0.0000000000000000     
   1.0000000000000000       0.44444444000000000        0.0000000000000000     
   1.0000000000000000       0.55555555999999995        0.0000000000000000     
   1.0000000000000000       0.66666667000000002        0.0000000000000000     
   1.0000000000000000       0.77777777999999997        0.0000000000000000     
   1.0000000000000000       0.88888889000000004        0.0000000000000000     
  0.88888889000000004        1.0000000000000000        0.0000000000000000     
  0.77777777999999997        1.0000000000000000        0.0000000000000000     
  0.66666667000000002        1.0000000000000000        0.0000000000000000     
  0.55555555999999995        1.0000000000000000        0.0000000000000000     
  0.44444444000000000        1.0000000000000000        0.0000000000000000     
  0.33333332999999998        1.0000000000000000        0.0000000000000000     
  0.22222222000000000        1.0000000000000000        0.0000000000000000     
  0.11111111000000000        1.0000000000000000        0.0000000000000000     
   0.0000000000000000       0.11111111000000000        0.0000000000000000     
   0.0000000000000000       0.22222222000000000        0.0000000000000000     
[...]
 CELL_DATA         354
 SCALARS U float
 LOOKUP_TABLE default
    0.15219908062662182435E+00
    0.22920152584800862483E+00
    0.18191419393365768076E+00
    0.22853839174909026943E+00
    0.22590912231569929003E+00
    0.25827962592212100335E+00
    0.30799233858860070034E+00
    0.27012486367111393504E+00
    0.41896970037385272700E+00
    0.48968989561267972643E+00
    0.58732015861625419539E+00
    0.53764027178681117469E+00
    0.62096535330497582006E+00
    0.62142571696493897893E+00
    0.59125404917219859247E+00
    0.61792848347592344016E+00
    0.51793440423269310191E+00
    0.45226275036129920393E+00
    0.38874421846562606797E+00
    0.42731803333308021609E+00
    0.29439434950798548662E+00
    0.30741811500123811252E+00
    0.33779196879119777197E+00
    0.31884886968132930551E+00
    0.33565626949262988843E+00
    0.33343558141210583035E+00
    0.30706128908584179316E+00
    0.32440708800943041101E+00
    0.24070599642208606594E+00
    0.21810167849830541797E+00
    0.16325670778746126377E+00
    0.19371208408246859412E+00
    0.16431751022569754395E+00
    0.15587525960575962514E+00
    0.16728341213954250888E+00
    0.16421222121734965760E+00
    0.17906993260935027967E+00
    0.16173930888097806657E+00
    0.14652675328849698588E+00
    0.15364018034070844876E+00
    0.12253327250210979682E+00
    0.12846120018234213900E+00
    0.12141335573572879791E+00
    0.12667253945546214089E+00
    0.13834707590736725069E+00
    0.13417596138191223432E+00
    0.14028363650532557627E+00
    0.13138582240656082600E+00
    0.15892293123423917311E+00
    0.18032544509984382852E+00
    0.19598238728800032593E+00
    0.17587156616949184418E+00
    0.15603661279232683423E+00
    0.15509213877108143920E+00
    0.15271597376622514375E+00
    0.14251359942683686222E+00
    0.13301815182533829884E+00
    0.13640183512160566903E+00
    0.13763180286019277565E+00
    0.14420528880169439234E+00
    0.14259028857978514604E+00
    0.13577171388263953311E+00
    0.12261929508745028627E+00
    0.13547798998688337369E+00
    0.14710858748325142398E+00
    0.16435405446672080032E+00
    0.16714744040214110643E+00
    0.16063454223230916318E+00
    0.74647712951707534401E+00
    0.72644552783881344293E+00
    0.71310961497816882648E+00
    0.73059258453592512694E+00
    0.71174150954010295678E+00
    0.68088475036605267121E+00
    0.65576019950853337015E+00
    0.66884030982590036984E+00
    0.66302709059474973508E+00
    0.69376299620018411218E+00
    0.41691308423008155426E+00
    0.52120607077355651793E+00
    0.42237661845548080120E+00
    0.43045039913979377122E+00
    0.57819887507870526555E+00
    0.35274059590596756886E+00
    0.71647675916146447150E+00
    0.66458955861336976856E+00
    0.46331328688470851951E+00
    0.74214179820245096408E+00
    0.72490125724895948522E+00
    0.72817196062539923940E+00
    0.57474653067840530962E+00
    0.53197482781434013432E+00
    0.47320673308950811364E+00
    0.33209610895713620460E+00
    0.28714311485483412500E+00
    0.34579151395239743350E+00
    0.60245677811692388559E+00
    0.63130665895233262219E+00
    0.69332673053381854711E+00
    0.65428659133718003460E+00
    0.70684567424728328433E+00
    0.60048544035004347563E+00
    0.67841546038309241684E+00
    0.69969918512018058898E+00
    0.69314771616830905820E+00
    0.64857550901347216232E+00
    0.66086249513134331934E+00
    0.76036271477948647046E+00
    0.52865239442341127596E+00
    0.45608268533091395058E+00
    0.36557215665757247791E+00
    0.42699618238481579224E+00
    0.38226786961118441877E+00
    0.35171450309814944468E+00
    0.64577289387094261031E+00
    0.45168806454800553007E+00
    0.50644872112751926352E+00
    0.54821291979715991438E+00
    0.62617639150035686590E+00
    0.35610872527244485930E+00
    0.49821055123625479499E+00
    0.19227225369461753424E+00
    0.22897010627583974651E+00
    0.18890600413973732130E+00
    0.29020647452882636363E+00
    0.31058161832677144698E+00
    0.16484515260691004479E+00
    0.18696483620113429902E+00
    0.36542517172821659122E+00
    0.52258228538862105950E+00
    0.32702384022504787930E+00
    0.63922006252987706443E+00
    0.56470063866134023733E+00
    0.26903234811562765083E+00
    0.38124551179438675996E+00
    0.66946089376889206246E+00
    0.69025398899720635804E+00
    0.58048675951015449304E+00
    0.71898690075456750392E+00
    0.70588170508364067590E+00
    0.64876665622799511990E+00
    0.57972458243840352399E+00
    0.15248600224673145020E+00
    0.14193453458805807554E+00
    0.15468393063281329902E+00
    0.20615797487274334365E+00
    0.19261976769712230162E+00
    0.14012660881084595954E+00
    0.14081164311725344329E+00
    0.70620710048718760010E+00
    0.74291083374922661786E+00
    0.71291557696976937120E+00
    0.71816216738503491079E+00
    0.71214622672149907601E+00
    0.72846814146957417080E+00
    0.69206588406693847482E+00
    0.71576610731117229491E+00
    0.71073276940598462126E+00
    0.69843528624185680087E+00
    0.67852329967960423041E+00
    0.64753759871038507612E+00
    0.60340470576902127675E+00
    0.63021495585980091825E+00
    0.61760723600666556088E+00
    0.62439572881180460673E+00
    0.28019725058838967913E+00
    0.37128408669777407392E+00
    0.29791880670982756607E+00
    0.30856290649050366337E+00
    0.35386806018234540083E+00
    0.70029304579680284881E+00
    0.71033591836569165423E+00
    0.68117703282524200148E+00
    0.71254419634830701291E+00
    0.71311198153110111342E+00
    0.46430531034013722280E+00
    0.54037194393671916792E+00
    0.48325141330014576013E+00
    0.45842382126084724181E+00
    0.46656923309795927945E+00
    0.72253076526815163128E+00
    0.70906110294917179537E+00
    0.71477165477338155952E+00
    0.69281990512723590214E+00
    0.69155498133253845428E+00
    0.49359161373590088040E+00
    0.50306702538907133171E+00
    0.44384804028601371195E+00
    0.52758544827390763121E+00
    0.52823004345937318860E+00
    0.75614589053668979091E+00
    0.71199120875990373758E+00
    0.74248130186354288629E+00
    0.75908210029356737447E+00
    0.73545058316902678364E+00
    0.27621161537132599140E+00
    0.29995340402607767460E+00
    0.26158025480427082865E+00
    0.31464102438479679691E+00
    0.31734335068014790648E+00
    0.15817155814406397285E+00
    0.21078506031232824292E+00
    0.21357121010561966323E+00
    0.17271423727043910823E+00
    0.19305655000213267636E+00
    0.56348228235256703211E+00
    0.75674363337923611361E+00
    0.68709527150428062470E+00
    0.72535610007963535750E+00
    0.73837979693933375458E+00
    0.58729245666090879041E+00
    0.53755208315079960890E+00
    0.65313213011276927134E+00
    0.63029325281998194175E+00
    0.67266721609260282655E+00
    0.70277118708245944756E+00
    0.67573426232189115481E+00
    0.65262269891008584111E+00
    0.67356292162525455147E+00
    0.50617517442663861882E+00
    0.39753933178333034082E+00
    0.38064122728992560996E+00
    0.55678072480605811378E+00
    0.40310308146081141878E+00
    0.54115561933314348941E+00
    0.15685868812747114087E+00
    0.18691638456445694438E+00
    0.27561990955835213857E+00
    0.28051806739591650386E+00
    0.25623058311175994639E+00
    0.29418665753758743708E+00
    0.32003866099086325514E+00
    0.47292957841653793238E+00
    0.45885838076945001385E+00
    0.58546578201809518216E+00
    0.57722398839132327275E+00
    0.68808222596155166340E+00
    0.76119140657542927464E+00
    0.69604703878869456091E+00
    0.67065967463871556387E+00
    0.73590573197905562175E+00
    0.55641883336493569434E+00
    0.39069078900227105500E+00
    0.37272118855117331027E+00
    0.73066095637808325947E+00
    0.69593138409573240821E+00
    0.27069321557950248858E+00
    0.20672120062367374538E+00
    0.16183384015871474237E+00
    0.51047619157458423711E+00
    0.29852393644786789917E+00
    0.22757034261103756267E+00
    0.66921509266496337354E+00
    0.66886910788926534632E+00
    0.38229656742361717292E+00
    0.71578770439310934748E+00
    0.61040162854534263381E+00
    0.54836543117003788694E+00
    0.37033709672174303096E+00
    0.39119575809931728116E+00
    0.18872618889336631454E+00
    0.71393752212537131552E+00
    0.71140005068333345140E+00
    0.63774382108239990874E+00
    0.22545377873690386483E+00
    0.22331437042979052077E+00
    0.14700323858911212849E+00
    0.19801029511082035572E+00
    0.17053965670263990240E+00
    0.13951557827321409144E+00
    0.66458876288794210829E+00
    0.66416096760167198099E+00
    0.74624391245387600158E+00
    0.74006715284571455982E+00
    0.43891487403922424537E+00
    0.68297024347470536298E+00
    0.66735294660817701118E+00
    0.58745160652535299839E+00
    0.30915729828656934863E+00
    0.65550841233955037257E+00
    0.60718878934304942874E+00
    0.34283985784176362888E+00
    0.71282166421348647223E+00
    0.75408237680425216354E+00
    0.58424457402806551087E+00
    0.68221999894893525784E+00
    0.61958728938999296787E+00
    0.24296261421746323528E+00
    0.32621221957677659642E+00
    0.16995067482157777405E+00
    0.18450934057003542943E+00
    0.57558636201989599179E+00
    0.48903236733073512932E+00
    0.13953828983024701982E+00
    0.14068832984187518154E+00
    0.66356881047443738719E+00
    0.39815788757036751910E+00
    0.40959730139420319484E+00
    0.72427825744330065483E+00
    0.26456218561909783382E+00
    0.59616945679855903872E+00
    0.73667335176176373945E+00
    0.22619868240233076406E+00
    0.72117328459922647177E+00
    0.54680866938923500253E+00
    0.68464718081556885654E+00
    0.42965518892139270557E+00
    0.66872232714687052102E+00
    0.27896490027322251581E+00
    0.32419025015422275882E+00
    0.54316987508786374050E+00
    0.68131844048446710271E+00
    0.70483898100718844759E+00
    0.44675360487648352326E+00
    0.69415603106243817244E+00
    0.68450125330653843747E+00
    0.52206087596558914399E+00
    0.35524637913618817286E+00
    0.17540225383368887591E+00
    0.11705067765248469702E+00
    0.23575061207373637640E+00
    0.16964700438465912802E+00
    0.17776275481870770778E+00
    0.18615530452913348070E+00
    0.24150218466242762139E+00
    0.21034803237597038406E+00
    0.22823929614126653442E+00
    0.25863533517508680015E+00
    0.37494477444053775361E+00
    0.48907953118361402467E+00
    0.49513898319579530138E+00
    0.43036277600817690603E+00
    0.32695290681109828723E+00
    0.19109468836764589850E+00
    0.19276452810421768058E+00
    0.18128897613124750343E+00
    0.16257259178489819051E+00
    0.13770624290590174899E+00
    0.13152825280008656472E+00
    0.16151472685948964347E+00
    0.15695986971692588163E+00
    0.12369397866036804801E+00
    0.11348318512509346367E+00
    0.11467368042948378193E+00
    0.13585839669944604902E+00
    0.16137302374385281700E+00
    0.20931135917259896528E+00
    0.10604488227619550400E+00
    0.92838814054315710322E-01
    0.90649292121088131946E-01
    0.98808340853017970207E-01
    0.11127496928286519096E+00
    0.13298851615621334887E+00
    0.18517820278645530374E+00
