# vtk DataFile Version 3.0
LAPLACIEN  2D
ASCII
DATASET UNSTRUCTURED_GRID
 POINTS         391  float
  0.50371505999999999       0.50367786999999997        0.0000000000000000     
  0.29013556000000001       0.29014535000000002        0.0000000000000000     
  0.70165584999999997       0.71206597999999999        0.0000000000000000     
  0.70304188999999995       0.30176619999999998        0.0000000000000000     
  0.30920671999999999       0.71149227999999998        0.0000000000000000     
  0.79044983999999996       0.49884783999999999        0.0000000000000000     
  0.49102621000000002       0.20968644000000000        0.0000000000000000     
  0.49912957000000002       0.77208717000000004        0.0000000000000000     
  0.21724072999999999       0.48989389000000000        0.0000000000000000     
  0.83255933999999998       0.83046598000000005        0.0000000000000000     
  0.16646774000000000       0.17015694000000001        0.0000000000000000     
  0.83054514999999995       0.16736480000000001        0.0000000000000000     
  0.16953130999999999       0.83265739000000005        0.0000000000000000     
  0.42166445000000002       0.36345201999999999        0.0000000000000000     
  0.64462200999999997       0.56347807999999999        0.0000000000000000     
  0.35324633999999999       0.56311191000000005        0.0000000000000000     
  0.65456411000000003       0.84856860999999995        0.0000000000000000     
  0.35141477999999998       0.15563974000000000        0.0000000000000000     
  0.15290967000000000       0.35206625000000003        0.0000000000000000     
  0.82942241000000005       0.34936866000000000        0.0000000000000000     
  0.84390527000000004       0.64441694999999999        0.0000000000000000     
  0.63699174999999997       0.14284276000000001        0.0000000000000000     
  0.15620682999999999       0.64648446999999998        0.0000000000000000     
  0.36426062999999997       0.85756310999999996        0.0000000000000000     
  0.63489340999999999       0.40519052000000000        0.0000000000000000     
  0.52518872999999999       0.65957078000000002        0.0000000000000000     
  0.32158959999999998       0.42298103999999997        0.0000000000000000     
  0.58861710000000000       0.31711036999999997        0.0000000000000000     
  0.42078418000000001       0.69497151999999995        0.0000000000000000     
  0.48608786999999998       0.89334152000000000        0.0000000000000000     
   9.7084320000000002E-002  0.50000000000000000        0.0000000000000000     
  0.90291568000000000       0.50000000000000000        0.0000000000000000     
  0.51392453000000005       0.10668648999999999        0.0000000000000000     
  0.59792566999999996       0.73122754000000001        0.0000000000000000     
  0.74510058999999995       0.41124730999999998        0.0000000000000000     
  0.73212551999999997       0.90191560000000004        0.0000000000000000     
   9.7784830000000003E-002  0.26957329000000002        0.0000000000000000     
  0.26711221000000002        9.8671499999999995E-002   0.0000000000000000     
  0.90191560000000004       0.26787448000000003        0.0000000000000000     
  0.90118569000000004       0.73039821000000005        0.0000000000000000     
  0.73122947000000005        9.8017859999999998E-002   0.0000000000000000     
   9.8084400000000002E-002  0.73212551999999997        0.0000000000000000     
  0.26957329000000002       0.90221516999999996        0.0000000000000000     
  0.39283522999999998       0.25360379000000000        0.0000000000000000     
  0.74480864000000002       0.60495284999999999        0.0000000000000000     
  0.25505132000000003       0.60593640999999998        0.0000000000000000     
  0.52159297999999998       0.40671636000000000        0.0000000000000000     
  0.40768852000000000       0.47699891000000000        0.0000000000000000     
   9.1467049999999994E-002   9.1876959999999994E-002   0.0000000000000000     
  0.90842484999999995       0.90819225000000003        0.0000000000000000     
  0.90820104999999995        9.1566729999999999E-002   0.0000000000000000     
   9.1807449999999999E-002  0.90843574000000005        0.0000000000000000     
  0.27098960000000000       0.20527094000000001        0.0000000000000000     
  0.73457293999999995       0.79835387000000002        0.0000000000000000     
  0.79817773000000003       0.25713470999999999        0.0000000000000000     
  0.20747797000000001       0.72863946000000002        0.0000000000000000     
  0.20175195000000001       0.27583914999999998        0.0000000000000000     
  0.79603889000000005       0.72159035000000005        0.0000000000000000     
  0.71761666000000002       0.19748431999999999        0.0000000000000000     
  0.28462607000000001       0.80251899999999998        0.0000000000000000     
  0.69134598999999997       0.49261972999999998        0.0000000000000000     
  0.44720578999999999       0.58582935999999997        0.0000000000000000     
  0.24242269999999999       0.37228174000000003        0.0000000000000000     
  0.38265623999999998       0.93072131999999996        0.0000000000000000     
  0.60971754000000000       0.91988369000000003        0.0000000000000000     
   7.9163609999999995E-002  0.60979116000000000        0.0000000000000000     
  0.92010649000000000       0.61081183999999999        0.0000000000000000     
  0.61954008999999999        7.1530830000000004E-002   0.0000000000000000     
  0.91882012999999996       0.38917363999999999        0.0000000000000000     
  0.39086346000000000        8.0652249999999995E-002   0.0000000000000000     
   7.9183480000000001E-002  0.38966213000000000        0.0000000000000000     
  0.59114111999999996       0.49294315000000000        0.0000000000000000     
  0.63337980999999999       0.64485914000000000        0.0000000000000000     
  0.50012352000000004       0.29676539000000002        0.0000000000000000     
  0.82552601000000003       0.92753492000000004        0.0000000000000000     
  0.92774772999999999       0.82498556999999995        0.0000000000000000     
   7.1970870000000006E-002  0.17510291000000000        0.0000000000000000     
  0.17422821999999999        7.2635640000000001E-002   0.0000000000000000     
  0.82510813000000005        7.2134840000000006E-002   0.0000000000000000     
  0.92754665000000003       0.17446275999999999        0.0000000000000000     
  0.17501022999999999       0.92789951999999998        0.0000000000000000     
   7.2464680000000004E-002  0.82554053000000005        0.0000000000000000     
  0.30731587999999999       0.50885354999999999        0.0000000000000000     
  0.59033407999999998       0.22171178999999999        0.0000000000000000     
  0.40109191999999999       0.78725542000000004        0.0000000000000000     
  0.35420917000000002       0.63754104000000000        0.0000000000000000     
  0.15983976999999999       0.56665573000000002        0.0000000000000000     
  0.84108459999999996       0.56757886999999996        0.0000000000000000     
  0.83902096000000004       0.43344338999999998        0.0000000000000000     
  0.43230028999999998       0.16004268999999999        0.0000000000000000     
  0.57536027999999995       0.83041363999999995        0.0000000000000000     
  0.15771898000000001       0.42747892999999998        0.0000000000000000     
  0.34021692999999997       0.34221559000000001        0.0000000000000000     
  0.56002271999999997       0.57501117999999996        0.0000000000000000     
  0.65344329000000001       0.78147597999999996        0.0000000000000000     
   0.0000000000000000        0.0000000000000000        0.0000000000000000     
   1.0000000000000000        0.0000000000000000        0.0000000000000000     
   1.0000000000000000        1.0000000000000000        0.0000000000000000     
   0.0000000000000000        1.0000000000000000        0.0000000000000000     
  0.11111111000000000        0.0000000000000000        0.0000000000000000     
  0.22222222000000000        0.0000000000000000        0.0000000000000000     
  0.33333332999999998        0.0000000000000000        0.0000000000000000     
  0.44444444000000000        0.0000000000000000        0.0000000000000000     
  0.55555555999999995        0.0000000000000000        0.0000000000000000     
  0.66666667000000002        0.0000000000000000        0.0000000000000000     
  0.77777777999999997        0.0000000000000000        0.0000000000000000     
  0.88888889000000004        0.0000000000000000        0.0000000000000000     
   1.0000000000000000       0.11111111000000000        0.0000000000000000     
   1.0000000000000000       0.22222222000000000        0.0000000000000000     
   1.0000000000000000       0.33333332999999998        0.0000000000000000     
   1.0000000000000000       0.44444444000000000        0.0000000000000000     
   1.0000000000000000       0.55555555999999995        0.0000000000000000     
   1.0000000000000000       0.66666667000000002        0.0000000000000000     
   1.0000000000000000       0.77777777999999997        0.0000000000000000     
   1.0000000000000000       0.88888889000000004        0.0000000000000000     
  0.88888889000000004        1.0000000000000000        0.0000000000000000     
  0.77777777999999997        1.0000000000000000        0.0000000000000000     
  0.66666667000000002        1.0000000000000000        0.0000000000000000     
  0.55555555999999995        1.0000000000000000        0.0000000000000000     
  0.44444444000000000        1.0000000000000000        0.0000000000000000     
  0.33333332999999998        1.0000000000000000        0.0000000000000000     
  0.22222222000000000        1.0000000000000000        0.0000000000000000     
  0.11111111000000000        1.0000000000000000        0.0000000000000000     
   0.0000000000000000       0.11111111000000000        0.0000000000000000     
   0.0000000000000000       0.22222222000000000        0.0000000000000000     
[...]
 CELL_DATA         354
 SCALARS U float
 LOOKUP_TABLE default
    0.14238671098948862959E+00
    0.21725176906333795723E+00
    0.17794254440722079291E+00
    0.23144413494589963221E+00
    0.21125978806081163741E+00
    0.24548250770135326970E+00
    0.29845323905010379129E+00
    0.25804559284042188905E+00
    0.41613505998365829530E+00
    0.48673883264397260762E+00
    0.58699818657941393862E+00
    0.53693645164518710722E+00
    0.62218655311374726491E+00
    0.62376483625361156538E+00
    0.59273580282797788676E+00
    0.62000843185981979744E+00
    0.51554539415937283842E+00
    0.44736347034063972394E+00
    0.37955763324454322438E+00
    0.42044548563843076039E+00
    0.27997781906523783180E+00
    0.29187339008459967094E+00
    0.32467958071609237525E+00
    0.30510983618312370602E+00
    0.32453250583533715945E+00
    0.32248163633082693735E+00
    0.29585545091235448956E+00
    0.31289883669363094398E+00
    0.22858243901702185452E+00
    0.20571386008624475972E+00
    0.15256033930038612190E+00
    0.18273930330266571764E+00
    0.15598857130910626090E+00
    0.14636369161822096463E+00
    0.16073067714428265762E+00
    0.15660370686508989779E+00
    0.17404281626857034948E+00
    0.15499358527480086578E+00
    0.13806710682854825278E+00
    0.14531633206285274329E+00
    0.11366451483675357736E+00
    0.11974920160434839034E+00
    0.11269990185972578178E+00
    0.11784345274665837533E+00
    0.12940523137019799282E+00
    0.12449515172948664998E+00
    0.13268501984828864892E+00
    0.12316716128370022720E+00
    0.15264674853316881342E+00
    0.17687870466571664618E+00
    0.19617733462141601075E+00
    0.17352506472229345391E+00
    0.14394280228820455214E+00
    0.14165413217788486167E+00
    0.14060104643231993715E+00
    0.12943364060052986453E+00
    0.12315243456421114121E+00
    0.12647622403736100138E+00
    0.12703224916059463467E+00
    0.13339401554919408377E+00
    0.13306793649394435541E+00
    0.12565951743498585125E+00
    0.11376801277602625884E+00
    0.12663105856658762871E+00
    0.14020999333170669487E+00
    0.15866420849492565703E+00
    0.16389292756755355351E+00
    0.15630387819347790757E+00
    0.75015560977634687667E+00
    0.73443096606577318308E+00
    0.72323221073948706916E+00
    0.73630715954626269060E+00
    0.72060001192411204940E+00
    0.68739372285497601922E+00
    0.66494148989432677599E+00
    0.68104480858593208215E+00
    0.67407972382716752069E+00
    0.70314388155000251412E+00
    0.41910125843910905896E+00
    0.53197545350180330814E+00
    0.42522464278167271257E+00
    0.43449272263997307242E+00
    0.59048244457817611330E+00
    0.35272077014822794672E+00
    0.71958696283221335044E+00
    0.64914473929130767083E+00
    0.42930344071368548020E+00
    0.74271509958942338869E+00
    0.72733494544079357880E+00
    0.71696768572436331279E+00
    0.54969436667293603005E+00
    0.53868770944446642268E+00
    0.48203697864097838632E+00
    0.32944600695766673715E+00
    0.28006800930600117550E+00
    0.34322383889932250867E+00
    0.61550322678671476329E+00
    0.64234263591641205249E+00
    0.70063105968697336756E+00
    0.66582487028761661030E+00
    0.71613324705301906192E+00
    0.61230606248653152157E+00
    0.68765535948513667464E+00
    0.69840876083879532832E+00
    0.69072522617031206771E+00
    0.62029216483205540378E+00
    0.63407864770544175581E+00
    0.76448428477210150778E+00
    0.54038448693055995964E+00
    0.46425539802519399935E+00
    0.35508054030043006977E+00
    0.42986826948766876377E+00
    0.37599736601676159164E+00
    0.34724210127593074793E+00
    0.65703000329154170878E+00
    0.45410840345545200325E+00
    0.51592079935558299297E+00
    0.55815680070235518251E+00
    0.63846652834009898214E+00
    0.35820986683744365786E+00
    0.50671157706495595363E+00
    0.18241422364148215940E+00
    0.21913586480228436359E+00
    0.18097036414553147043E+00
    0.28022441092004812813E+00
    0.30050737068273558616E+00
    0.15775072418936658680E+00
    0.17921207643239683849E+00
    0.35808822532843365138E+00
    0.53200283678677751098E+00
    0.31654291448872007297E+00
    0.65208539677016696956E+00
    0.57157131754798240486E+00
    0.25654412211588373260E+00
    0.37959091395048333295E+00
    0.68089786798674489798E+00
    0.69924204450495941465E+00
    0.58776052944327794592E+00
    0.72793541609100853584E+00
    0.71227384413186645151E+00
    0.65917358392380609455E+00
    0.58767921930610811376E+00
    0.14396037893436100519E+00
    0.13357683828464669840E+00
    0.14767920172155807323E+00
    0.19551730418552609736E+00
    0.18170723756391735093E+00
    0.13336917653437785347E+00
    0.13404243154905040591E+00
    0.71254448538835934990E+00
    0.74705025352118570314E+00
    0.70523433022418879901E+00
    0.72392801086332636551E+00
    0.70243555652797062816E+00
    0.73352868175458552091E+00
    0.70229489932045663370E+00
    0.72488954891193169150E+00
    0.71790881058000177717E+00
    0.70967673062484115665E+00
    0.68751786803710890350E+00
    0.66022559943046910114E+00
    0.61010156403576720763E+00
    0.64160505157989622393E+00
    0.62510352486186304688E+00
    0.63868520482142487893E+00
    0.26819821532396898034E+00
    0.37060405912828076058E+00
    0.28647678969940915117E+00
    0.30431146069882386573E+00
    0.35414926307889166290E+00
    0.71151762747955049626E+00
    0.71771689325275012106E+00
    0.69188529590409664216E+00
    0.72228808675891020830E+00
    0.72093225032962982013E+00
    0.45388328867939498057E+00
    0.55207133224264748339E+00
    0.48919416784366698270E+00
    0.44802558872109654597E+00
    0.47044888527470940520E+00
    0.72977056531402650918E+00
    0.71892183641770412983E+00
    0.72271344897816058861E+00
    0.70292738273378829739E+00
    0.70147141894127840178E+00
    0.49135056969787599401E+00
    0.50995373803139265600E+00
    0.44502914092812018154E+00
    0.52980115795957871683E+00
    0.53856595399491313803E+00
    0.76111267692482220681E+00
    0.71731469110822887458E+00
    0.74535440453427714846E+00
    0.76464434228000610627E+00
    0.73592653911681771284E+00
    0.26431095066320697828E+00
    0.29517781562888495417E+00
    0.25407341051581749936E+00
    0.30578131479409453863E+00
    0.31249935140775625397E+00
    0.15027001537188958147E+00
    0.20034578210543790844E+00
    0.20512057304464101359E+00
    0.16319443262363178548E+00
    0.18499621633676704979E+00
    0.52941297051785018990E+00
    0.75830932326907474206E+00
    0.67489140882019860168E+00
    0.72820015815031058359E+00
    0.73986104941709140981E+00
    0.60125414504694685291E+00
    0.54879809573841453751E+00
    0.66584245463138280741E+00
    0.64497989569883829031E+00
    0.68487133315961279401E+00
    0.71218361455287637618E+00
    0.68611722152585308265E+00
    0.66420062340962815473E+00
    0.68108433944961110917E+00
    0.46991172616528653627E+00
    0.36336100065899512579E+00
    0.35138572975201204374E+00
    0.56509963177123190281E+00
    0.40400886874583114006E+00
    0.54869510173084246052E+00
    0.14855287729871455293E+00
    0.17485390175296486315E+00
    0.26435007138680627348E+00
    0.26833381910144477045E+00
    0.24317216338529340502E+00
    0.27785953778602956454E+00
    0.31013958137952757355E+00
    0.46622203611972057313E+00
    0.45389926102738920033E+00
    0.58707257261734768772E+00
    0.58346849811269763109E+00
    0.69840664517446682247E+00
    0.76787967621028807574E+00
    0.70354830515179056505E+00
    0.66728287423111498633E+00
    0.74189644175028113260E+00
    0.56762618020622424009E+00
    0.39052384932792816308E+00
    0.37282830985254022949E+00
    0.73711077000215763366E+00
    0.70368837295935737774E+00
    0.26114470340750067789E+00
    0.19389463087224925730E+00
    0.15428204354202351700E+00
    0.51379898536635115747E+00
    0.27869791968751667088E+00
    0.21312402596873450400E+00
    0.68217157354731905450E+00
    0.67793465976965705533E+00
    0.38091589633262823433E+00
    0.72576439265483450036E+00
    0.61308194826831963198E+00
    0.54892226473109761997E+00
    0.36418549805345756809E+00
    0.38322715818430075352E+00
    0.18120074069259839433E+00
    0.71936995993798535931E+00
    0.71961627429841679149E+00
    0.64472241292253107403E+00
    0.21560744788306751563E+00
    0.21176324851609831801E+00
    0.14035863340568496826E+00
    0.18858003179401611193E+00
    0.16102182614638507752E+00
    0.13281982407670270274E+00
    0.67137524163965345281E+00
    0.65824641017566232204E+00
    0.75226716749722466471E+00
    0.74668582237766101262E+00
    0.44224619307183576922E+00
    0.69285205321072962370E+00
    0.68205725237336567446E+00
    0.59917094667010972753E+00
    0.30756710129608960669E+00
    0.66680934965938531978E+00
    0.62282117525971913974E+00
    0.34297704669442052872E+00
    0.71583837539942873907E+00
    0.75566201559642509622E+00
    0.55740766207487046913E+00
    0.69224513721926839160E+00
    0.62657830488297105997E+00
    0.22798960615914462546E+00
    0.31403791946857151363E+00
    0.16285662334032302567E+00
    0.17672440401417632838E+00
    0.58039742598171328858E+00
    0.48324670713490547325E+00
    0.13299414901669814881E+00
    0.13398111088572070559E+00
    0.67718433592779470054E+00
    0.39681015254340595844E+00
    0.41236753342888587959E+00
    0.72914871111044532448E+00
    0.25453939775055534067E+00
    0.60895012685933092023E+00
    0.72350309766468801076E+00
    0.21846106378564100758E+00
    0.72670357229928972398E+00
    0.55518556690611298166E+00
    0.69612545298740102773E+00
    0.43349309575013361684E+00
    0.67845274348431494627E+00
    0.26835649907259112590E+00
    0.31420825147647013509E+00
    0.54762696894471274423E+00
    0.69178540206697847204E+00
    0.71290941018458331424E+00
    0.44004467914056266675E+00
    0.70071465729877113748E+00
    0.69660741498276679273E+00
    0.48888468978580096325E+00
    0.35433211032455386169E+00
    0.16363618072190316832E+00
    0.10741209083613133257E+00
    0.22052832401122468564E+00
    0.15566867542470458341E+00
    0.17393331912284021312E+00
    0.18373682103174543423E+00
    0.24734449066174218901E+00
    0.21254740927630597080E+00
    0.21649275910007986790E+00
    0.24573159112388867631E+00
    0.36356370114441188823E+00
    0.48342016240951324324E+00
    0.48964091398448633674E+00
    0.42203737598166152223E+00
    0.31442006847259124092E+00
    0.17485381098525748511E+00
    0.17557735931490242587E+00
    0.16402481008260319517E+00
    0.14685903719846696291E+00
    0.12376304948186524213E+00
    0.12093749568928979787E+00
    0.15343534366110084255E+00
    0.15064540430320083608E+00
    0.11525111749439399811E+00
    0.10398975481368279150E+00
    0.10586604774876282042E+00
    0.12781537518325805647E+00
    0.15612082460575268938E+00
    0.20997519348370016767E+00
    0.94529459092914616680E-01
    0.81329415282958256173E-01
    0.79006538649484259196E-01
    0.87831063277722623561E-01
    0.10088863591870848857E+00
    0.12555842205566217218E+00
    0.18268984514140557129E+00
