# vtk DataFile Version 3.0
LAPLACIEN  2D
ASCII
DATASET UNSTRUCTURED_GRID
 POINTS         391  float
  0.50371505999999999       0.50367786999999997        0.0000000000000000     
  0.29013556000000001       0.29014535000000002        0.0000000000000000     
  0.70165584999999997       0.71206597999999999        0.0000000000000000     
  0.70304188999999995       0.30176619999999998        0.0000000000000000     
  0.30920671999999999       0.71149227999999998        0.0000000000000000     
  0.79044983999999996       0.49884783999999999        0.0000000000000000     
  0.49102621000000002       0.20968644000000000        0.0000000000000000     
  0.49912957000000002       0.77208717000000004        0.0000000000000000     
  0.21724072999999999       0.48989389000000000        0.0000000000000000     
  0.83255933999999998       0.83046598000000005        0.0000000000000000     
  0.16646774000000000       0.17015694000000001        0.0000000000000000     
  0.83054514999999995       0.16736480000000001        0.0000000000000000     
  0.16953130999999999       0.83265739000000005        0.0000000000000000     
  0.42166445000000002       0.36345201999999999        0.0000000000000000     
  0.64462200999999997       0.56347807999999999        0.0000000000000000     
  0.35324633999999999       0.56311191000000005        0.0000000000000000     
  0.65456411000000003       0.84856860999999995        0.0000000000000000     
  0.35141477999999998       0.15563974000000000        0.0000000000000000     
  0.15290967000000000       0.35206625000000003        0.0000000000000000     
  0.82942241000000005       0.34936866000000000        0.0000000000000000     
  0.84390527000000004       0.64441694999999999        0.0000000000000000     
  0.63699174999999997       0.14284276000000001        0.0000000000000000     
  0.15620682999999999       0.64648446999999998        0.0000000000000000     
  0.36426062999999997       0.85756310999999996        0.0000000000000000     
  0.63489340999999999       0.40519052000000000        0.0000000000000000     
  0.52518872999999999       0.65957078000000002        0.0000000000000000     
  0.32158959999999998       0.42298103999999997        0.0000000000000000     
  0.58861710000000000       0.31711036999999997        0.0000000000000000     
  0.42078418000000001       0.69497151999999995        0.0000000000000000     
  0.48608786999999998       0.89334152000000000        0.0000000000000000     
   9.7084320000000002E-002  0.50000000000000000        0.0000000000000000     
  0.90291568000000000       0.50000000000000000        0.0000000000000000     
  0.51392453000000005       0.10668648999999999        0.0000000000000000     
  0.59792566999999996       0.73122754000000001        0.0000000000000000     
  0.74510058999999995       0.41124730999999998        0.0000000000000000     
  0.73212551999999997       0.90191560000000004        0.0000000000000000     
   9.7784830000000003E-002  0.26957329000000002        0.0000000000000000     
  0.26711221000000002        9.8671499999999995E-002   0.0000000000000000     
  0.90191560000000004       0.26787448000000003        0.0000000000000000     
  0.90118569000000004       0.73039821000000005        0.0000000000000000     
  0.73122947000000005        9.8017859999999998E-002   0.0000000000000000     
   9.8084400000000002E-002  0.73212551999999997        0.0000000000000000     
  0.26957329000000002       0.90221516999999996        0.0000000000000000     
  0.39283522999999998       0.25360379000000000        0.0000000000000000     
  0.74480864000000002       0.60495284999999999        0.0000000000000000     
  0.25505132000000003       0.60593640999999998        0.0000000000000000     
  0.52159297999999998       0.40671636000000000        0.0000000000000000     
  0.40768852000000000       0.47699891000000000        0.0000000000000000     
   9.1467049999999994E-002   9.1876959999999994E-002   0.0000000000000000     
  0.90842484999999995       0.90819225000000003        0.0000000000000000     
  0.90820104999999995        9.1566729999999999E-002   0.0000000000000000     
   9.1807449999999999E-002  0.90843574000000005        0.0000000000000000     
  0.27098960000000000       0.20527094000000001        0.0000000000000000     
  0.73457293999999995       0.79835387000000002        0.0000000000000000     
  0.79817773000000003       0.25713470999999999        0.0000000000000000     
  0.20747797000000001       0.72863946000000002        0.0000000000000000     
  0.20175195000000001       0.27583914999999998        0.0000000000000000     
  0.79603889000000005       0.72159035000000005        0.0000000000000000     
  0.71761666000000002       0.19748431999999999        0.0000000000000000     
  0.28462607000000001       0.80251899999999998        0.0000000000000000     
  0.69134598999999997       0.49261972999999998        0.0000000000000000     
  0.44720578999999999       0.58582935999999997        0.0000000000000000     
  0.24242269999999999       0.37228174000000003        0.0000000000000000     
  0.38265623999999998       0.93072131999999996        0.0000000000000000     
  0.60971754000000000       0.91988369000000003        0.0000000000000000     
   7.9163609999999995E-002  0.60979116000000000        0.0000000000000000     
  0.92010649000000000       0.61081183999999999        0.0000000000000000     
  0.61954008999999999        7.1530830000000004E-002   0.0000000000000000     
  0.91882012999999996       0.38917363999999999        0.0000000000000000     
  0.39086346000000000        8.0652249999999995E-002   0.0000000000000000     
   7.9183480000000001E-002  0.38966213000000000        0.0000000000000000     
  0.59114111999999996       0.49294315000000000        0.0000000000000000     
  0.63337980999999999       0.64485914000000000        0.0000000000000000     
  0.50012352000000004       0.29676539000000002        0.0000000000000000     
  0.82552601000000003       0.92753492000000004        0.0000000000000000     
  0.92774772999999999       0.82498556999999995        0.0000000000000000     
   7.1970870000000006E-002  0.17510291000000000        0.0000000000000000     
  0.17422821999999999        7.2635640000000001E-002   0.0000000000000000     
  0.82510813000000005        7.2134840000000006E-002   0.0000000000000000     
  0.92754665000000003       0.17446275999999999        0.0000000000000000     
  0.17501022999999999       0.92789951999999998        0.0000000000000000     
   7.2464680000000004E-002  0.82554053000000005        0.0000000000000000     
  0.30731587999999999       0.50885354999999999        0.0000000000000000     
  0.59033407999999998       0.22171178999999999        0.0000000000000000     
  0.40109191999999999       0.78725542000000004        0.0000000000000000     
  0.35420917000000002       0.63754104000000000        0.0000000000000000     
  0.15983976999999999       0.56665573000000002        0.0000000000000000     
  0.84108459999999996       0.56757886999999996        0.0000000000000000     
  0.83902096000000004       0.43344338999999998        0.0000000000000000     
  0.43230028999999998       0.16004268999999999        0.0000000000000000     
  0.57536027999999995       0.83041363999999995        0.0000000000000000     
  0.15771898000000001       0.42747892999999998        0.0000000000000000     
  0.34021692999999997       0.34221559000000001        0.0000000000000000     
  0.56002271999999997       0.57501117999999996        0.0000000000000000     
  0.65344329000000001       0.78147597999999996        0.0000000000000000     
   0.0000000000000000        0.0000000000000000        0.0000000000000000     
   1.0000000000000000        0.0000000000000000        0.0000000000000000     
   1.0000000000000000        1.0000000000000000        0.0000000000000000     
   0.0000000000000000        1.0000000000000000        0.0000000000000000     
  0.11111111000000000        0.0000000000000000        0.0000000000000000     
  0.22222222000000000        0.0000000000000000        0.0000000000000000     
  0.33333332999999998        0.0000000000000000        0.0000000000000000     
  0.44444444000000000        0.0000000000000000        0.0000000000000000     
  0.55555555999999995        0.0000000000000000        0.0000000000000000     
  0.66666667000000002        0.0000000000000000        0.0000000000000000     
  0.77777777999999997        0.0000000000000000        0.0000000000000000     
  0.88888889000000004        0.0000000000000000        0.0000000000000000     
   1.0000000000000000       0.11111111000000000        0.0000000000000000     
   1.0000000000000000       0.22222222000000000        0.0000000000000000     
   1.0000000000000000       0.33333332999999998        0.0000000000000000     
   1.0000000000000000       0.44444444000000000        0.0000000000000000     
   1.0000000000000000       0.55555555999999995        0.0000000000000000     
   1.0000000000000000       0.66666667000000002        0.0000000000000000     
   1.0000000000000000       0.77777777999999997        0.0000000000000000     
   1.0000000000000000       0.88888889000000004        0.0000000000000000     
  0.88888889000000004        1.0000000000000000        0.0000000000000000     
  0.77777777999999997        1.0000000000000000        0.0000000000000000     
  0.66666667000000002        1.0000000000000000        0.0000000000000000     
  0.55555555999999995        1.0000000000000000        0.0000000000000000     
  0.44444444000000000        1.0000000000000000        0.0000000000000000     
  0.33333332999999998        1.0000000000000000        0.0000000000000000     
  0.22222222000000000        1.0000000000000000        0.0000000000000000     
  0.11111111000000000        1.0000000000000000        0.0000000000000000     
   0.0000000000000000       0.11111111000000000        0.0000000000000000     
   0.0000000000000000       0.22222222000000000        0.0000000000000000     
[...]
 CELL_DATA         354
 SCALARS U float
 LOOKUP_TABLE default
    0.27868400435735133508E-02
    0.88003394841868493731E-02
    0.45836664940293141146E-02
    0.74214549397159474894E-02
    0.36941097390223850624E-02
    0.46633756471303076593E-02
    0.70288349585109335949E-01
    0.57100052563166013922E-02
    0.11470166049063018621E+00
    0.12494077343577636441E+00
    0.19586956129436347562E+00
    0.16757031500449204309E+00
    0.18445692968934146450E+00
    0.18880292537789367113E+00
    0.18908756140066382279E+00
    0.20201363490063417583E+00
    0.17291427531646824667E+00
    0.13047335713558227965E+00
    0.60479548771439683996E-01
    0.10767370493497330219E+00
    0.51327704498174378522E-01
    0.67627105722861818871E-01
    0.95303792243079277213E-01
    0.59786314619194771969E-01
    0.10134469600240794684E+00
    0.99739648750031217883E-01
    0.55556620621223726242E-01
    0.10275520635662518942E+00
    0.84945875214458531344E-02
    0.39083612100388447769E-02
    0.28343433788485749257E-02
    0.34937540154293686770E-02
    0.32683307163374813661E-02
    0.29145503915336324653E-02
    0.37212607039960416896E-02
    0.34632042366522244013E-02
    0.42576837294093341016E-02
    0.34969826441301958379E-02
    0.27788063731398410586E-02
    0.29519930246522593786E-02
    0.21740844732872329284E-02
    0.23212460717276944301E-02
    0.21795641005566608085E-02
    0.22705109674889360771E-02
    0.25178292133473233888E-02
    0.22586383375278549362E-02
    0.27729812215896180658E-02
    0.24461480697669088155E-02
    0.35114067497239555629E-02
    0.46771032370121678676E-02
    0.60041308444968039676E-02
    0.48765253625211741478E-02
    0.25757774271115666150E-02
    0.22473119653114853600E-02
    0.25075545736293627062E-02
    0.20643081194311792975E-02
    0.23294278687381437219E-02
    0.23467992284648669238E-02
    0.24242000743913616131E-02
    0.24334677605301409560E-02
    0.25987775577199431765E-02
    0.23475850779105193050E-02
    0.22240757873460098408E-02
    0.24928633801121940008E-02
    0.31285124129682962378E-02
    0.37258498766289754010E-02
    0.44025463743265057931E-02
    0.39833466473425723636E-02
    0.13122960996149318769E+00
    0.15333228898432293974E+00
    0.16611103194734316846E+00
    0.15909883493114967967E+00
    0.17690480422839630070E+00
    0.18252210802087881492E+00
    0.14919956238176190766E+00
    0.10454599842125968101E+00
    0.11998763979871693297E+00
    0.15553974587356389492E+00
    0.58915202914996932237E-01
    0.84260489984864128665E-01
    0.10440505042584119488E-01
    0.40938352629193736076E-01
    0.10142579332045065232E+00
    0.10911295980715917872E-01
    0.14069070573045475148E+00
    0.10451759270366758892E+00
    0.38747792371822381563E-01
    0.14240198523000160979E+00
    0.14080324763337659366E+00
    0.13781505852716158245E+00
    0.67454367607372736626E-01
    0.18550571678633595574E-01
    0.11787521260317485039E-01
    0.69036046680747888832E-02
    0.61486775709586917460E-02
    0.70221291836078027909E-02
    0.21852436689184198682E-01
    0.10581504022738497106E+00
    0.17980834430578679362E+00
    0.13874537138542650250E+00
    0.16264799549541769652E+00
    0.11716829103015743985E+00
    0.14655496079002405807E+00
    0.13156849784336976938E+00
    0.13402516437650305314E+00
    0.10338931106055795905E+00
    0.10404458598564406135E+00
    0.12791257210466405736E+00
    0.56540199251623735055E-01
    0.37003767729085035310E-01
    0.65067653137485075010E-02
    0.25485551784002167391E-01
    0.75868397065705500681E-02
    0.78427822025309602838E-02
    0.88261964161510567117E-01
    0.10233212276515045447E-01
    0.58239019001854103186E-01
    0.11147479869861101620E+00
    0.94709937551584438831E-01
    0.91403799321431479508E-02
    0.71306517489420184752E-01
    0.38188080215761982181E-02
    0.46605175425170853806E-02
    0.40225334665905708789E-02
    0.57493869144929201850E-02
    0.62576773600400313266E-02
    0.35533157592083533353E-02
    0.39479303167051912546E-02
    0.23351663463891298572E-01
    0.86162740399863310681E-01
    0.63657740419679042371E-02
    0.91815595413533596103E-01
    0.68820146488523734063E-01
    0.52666892662658719437E-02
    0.44371546420479829331E-01
    0.14185079827722255064E+00
    0.16538256682597501923E+00
    0.11400568861325965919E+00
    0.16244299798621561481E+00
    0.17029985348013526592E+00
    0.13714903117385873754E+00
    0.12211216625916646028E+00
    0.30776747498344929690E-02
    0.28405588201847495160E-02
    0.32180638261955921489E-02
    0.40312840381257564540E-02
    0.35855512248266232199E-02
    0.29367860576497584885E-02
    0.29494725421894004390E-02
    0.16818793845282623001E+00
    0.12811239465607382471E+00
    0.15892278062137718542E+00
    0.16125775277375337113E+00
    0.14092683292478258572E+00
    0.15077908309416493404E+00
    0.12699597268549173146E+00
    0.15870966072147579817E+00
    0.18530806345687692027E+00
    0.12185599629515247999E+00
    0.16559516945958363543E+00
    0.87340606432956297001E-01
    0.15434804465722679057E+00
    0.13363164670325616834E+00
    0.11526745461946580340E+00
    0.10765419437898668398E+00
    0.49935225452174842459E-02
    0.74130051734581734607E-02
    0.52275797586342565362E-02
    0.66617625969122452184E-02
    0.75569364991377339577E-02
    0.10688735665235009342E+00
    0.17445128962736411449E+00
    0.14995940475901620159E+00
    0.13760137671271133186E+00
    0.16482071869812098264E+00
    0.14404372726705614444E-01
    0.65532754557203976020E-01
    0.10967674000140914536E+00
    0.77810891461971894850E-02
    0.60759548461736694047E-01
    0.16314885606124396311E+00
    0.13387703721035854043E+00
    0.14873632351763871329E+00
    0.12097087557918284606E+00
    0.15198923080288717635E+00
    0.88821010408008712472E-02
    0.81529170969909192657E-01
    0.33277729198748023931E-01
    0.22077039464787073103E-01
    0.69740153630759083025E-01
    0.12011269332732793513E+00
    0.15355960246891250942E+00
    0.12806995913699820155E+00
    0.14097711855722733221E+00
    0.10763072266545589684E+00
    0.49564024610705753257E-02
    0.74186982694370851021E-02
    0.55716008311509600259E-02
    0.58197097160407980018E-02
    0.68705082432919620944E-02
    0.31574167867694119018E-02
    0.37903294811400369338E-02
    0.41593835409061592767E-02
    0.31127012110931228522E-02
    0.39224814233327779181E-02
    0.66568057609649913808E-01
    0.13508186620954881763E+00
    0.96830998029520956583E-01
    0.13566709086138431517E+00
    0.13487283541351394178E+00
    0.81915233576953669359E-01
    0.74808567960481214820E-01
    0.11287083302857441047E+00
    0.10745942954338630337E+00
    0.11836118177136339957E+00
    0.15906529254477663748E+00
    0.11822946904021733316E+00
    0.11685828759900807050E+00
    0.15620946779783512204E+00
    0.36456378311686563065E-01
    0.41084240216293704470E-02
    0.34002644501209024208E-02
    0.10764940015070094403E+00
    0.86068089120601952435E-02
    0.71363595864588416640E-01
    0.30136219132691358449E-02
    0.33887714463889978718E-02
    0.46553765642811280323E-02
    0.50653644840868341376E-02
    0.44795839349696022630E-02
    0.45173122372716154396E-02
    0.59203916758532723272E-02
    0.95037427969145073930E-02
    0.63056068845840709813E-01
    0.98166309774398913257E-01
    0.11134351717889851008E+00
    0.99046880371512394103E-01
    0.14355481149545284980E+00
    0.17624425564896128993E+00
    0.12422215977761880135E+00
    0.14657357780305471651E+00
    0.10699516198685138368E+00
    0.93566065868211072826E-02
    0.10719402106970952332E-01
    0.15596627953321828830E+00
    0.18030627561104337064E+00
    0.53673042975071107857E-02
    0.35225965990818694160E-02
    0.33114490237960030918E-02
    0.35029276247109386588E-01
    0.43891893183922500027E-02
    0.39115017686502323926E-02
    0.99945714119303419309E-01
    0.10350446094528660546E+00
    0.47800059070849887366E-01
    0.15277306103383536673E+00
    0.10689165878714537716E+00
    0.10917534233442198477E+00
    0.74345375467782361459E-02
    0.64991727185050056012E-02
    0.40483984141480768709E-02
    0.16038987041258495614E+00
    0.17816147205745358484E+00
    0.15853728361807772895E+00
    0.44320022287915429929E-02
    0.39072531170854787538E-02
    0.31469269021029565477E-02
    0.38179552770302204248E-02
    0.31625062714935770099E-02
    0.29439912008504985283E-02
    0.19038199698183377873E+00
    0.12517720196132520183E+00
    0.14644412028246267532E+00
    0.15210444667878342262E+00
    0.67813561179292339287E-01
    0.14600540726920646639E+00
    0.10315108528899986917E+00
    0.11527421145103894373E+00
    0.71663791849469931153E-02
    0.91001238554287017246E-01
    0.57068342406828273528E-01
    0.93133306072753548749E-02
    0.14212343745267302930E+00
    0.12873563149318117960E+00
    0.85783932302388246627E-01
    0.15871430796007621189E+00
    0.15218935376824566097E+00
    0.40118753234226122925E-02
    0.58538468731853619126E-02
    0.37123538909042677267E-02
    0.39137233160303243340E-02
    0.11397022595010236623E+00
    0.10509994819259702026E+00
    0.29566196360224267399E-02
    0.29681063252640304227E-02
    0.10049709307069423780E+00
    0.87124518516626080211E-02
    0.92477934644910279177E-02
    0.15920443213233531621E+00
    0.49825879867705386711E-02
    0.10444079991231131066E+00
    0.11582693563748489018E+00
    0.47617750204146675613E-02
    0.15927669455342557958E+00
    0.11648662560708156199E+00
    0.14718723956800267016E+00
    0.12317869989451578350E+00
    0.13862794886188212207E+00
    0.51795283586751113963E-02
    0.59329743875257308361E-02
    0.77453806862895907548E-01
    0.10931899554706975275E+00
    0.16664654663369299348E+00
    0.76557932677616931730E-02
    0.19133854246558704149E+00
    0.12044636712859263517E+00
    0.38188849890234632944E-01
    0.81702235681382923832E-02
    0.30480421150292950558E-02
    0.18375991410760478522E-02
    0.68256036183674314438E-02
    0.25240735612443217922E-02
    0.45637364156242378119E-02
    0.50053052849501535743E-02
    0.85487018452224151910E-02
    0.68312977612651273884E-02
    0.41152510128534634110E-02
    0.67676033885176137272E-01
    0.80250819259259684180E-01
    0.11287378759244057203E+00
    0.11675956228067203846E+00
    0.10094708063692235667E+00
    0.55403897656312518782E-01
    0.17672415799571544737E-01
    0.51700135859007033401E-01
    0.50966800596657743649E-01
    0.38148688900344757124E-02
    0.17548853925116105357E-02
    0.20763156681821229310E-02
    0.32667734907592558755E-02
    0.34216433516871744280E-02
    0.22029602857088093765E-02
    0.17669763791301105159E-02
    0.19075882743995282650E-02
    0.25484689556533393628E-02
    0.37670161770252869916E-02
    0.63909648042444235083E-02
    0.13399933840456119787E-02
    0.10395455141751412751E-02
    0.98620210793754219288E-03
    0.12403248176059559257E-02
    0.16079397447689390815E-02
    0.26684092054805939702E-02
    0.49712137860573098885E-02
