# vtk DataFile Version 3.0
LAPLACIEN  2D
ASCII
DATASET UNSTRUCTURED_GRID
 POINTS         391  float
  0.50371505999999999       0.50367786999999997        0.0000000000000000     
  0.29013556000000001       0.29014535000000002        0.0000000000000000     
  0.70165584999999997       0.71206597999999999        0.0000000000000000     
  0.70304188999999995       0.30176619999999998        0.0000000000000000     
  0.30920671999999999       0.71149227999999998        0.0000000000000000     
  0.79044983999999996       0.49884783999999999        0.0000000000000000     
  0.49102621000000002       0.20968644000000000        0.0000000000000000     
  0.49912957000000002       0.77208717000000004        0.0000000000000000     
  0.21724072999999999       0.48989389000000000        0.0000000000000000     
  0.83255933999999998       0.83046598000000005        0.0000000000000000     
  0.16646774000000000       0.17015694000000001        0.0000000000000000     
  0.83054514999999995       0.16736480000000001        0.0000000000000000     
  0.16953130999999999       0.83265739000000005        0.0000000000000000     
  0.42166445000000002       0.36345201999999999        0.0000000000000000     
  0.64462200999999997       0.56347807999999999        0.0000000000000000     
  0.35324633999999999       0.56311191000000005        0.0000000000000000     
  0.65456411000000003       0.84856860999999995        0.0000000000000000     
  0.35141477999999998       0.15563974000000000        0.0000000000000000     
  0.15290967000000000       0.35206625000000003        0.0000000000000000     
  0.82942241000000005       0.34936866000000000        0.0000000000000000     
  0.84390527000000004       0.64441694999999999        0.0000000000000000     
  0.63699174999999997       0.14284276000000001        0.0000000000000000     
  0.15620682999999999       0.64648446999999998        0.0000000000000000     
  0.36426062999999997       0.85756310999999996        0.0000000000000000     
  0.63489340999999999       0.40519052000000000        0.0000000000000000     
  0.52518872999999999       0.65957078000000002        0.0000000000000000     
  0.32158959999999998       0.42298103999999997        0.0000000000000000     
  0.58861710000000000       0.31711036999999997        0.0000000000000000     
  0.42078418000000001       0.69497151999999995        0.0000000000000000     
  0.48608786999999998       0.89334152000000000        0.0000000000000000     
   9.7084320000000002E-002  0.50000000000000000        0.0000000000000000     
  0.90291568000000000       0.50000000000000000        0.0000000000000000     
  0.51392453000000005       0.10668648999999999        0.0000000000000000     
  0.59792566999999996       0.73122754000000001        0.0000000000000000     
  0.74510058999999995       0.41124730999999998        0.0000000000000000     
  0.73212551999999997       0.90191560000000004        0.0000000000000000     
   9.7784830000000003E-002  0.26957329000000002        0.0000000000000000     
  0.26711221000000002        9.8671499999999995E-002   0.0000000000000000     
  0.90191560000000004       0.26787448000000003        0.0000000000000000     
  0.90118569000000004       0.73039821000000005        0.0000000000000000     
  0.73122947000000005        9.8017859999999998E-002   0.0000000000000000     
   9.8084400000000002E-002  0.73212551999999997        0.0000000000000000     
  0.26957329000000002       0.90221516999999996        0.0000000000000000     
  0.39283522999999998       0.25360379000000000        0.0000000000000000     
  0.74480864000000002       0.60495284999999999        0.0000000000000000     
  0.25505132000000003       0.60593640999999998        0.0000000000000000     
  0.52159297999999998       0.40671636000000000        0.0000000000000000     
  0.40768852000000000       0.47699891000000000        0.0000000000000000     
   9.1467049999999994E-002   9.1876959999999994E-002   0.0000000000000000     
  0.90842484999999995       0.90819225000000003        0.0000000000000000     
  0.90820104999999995        9.1566729999999999E-002   0.0000000000000000     
   9.1807449999999999E-002  0.90843574000000005        0.0000000000000000     
  0.27098960000000000       0.20527094000000001        0.0000000000000000     
  0.73457293999999995       0.79835387000000002        0.0000000000000000     
  0.79817773000000003       0.25713470999999999        0.0000000000000000     
  0.20747797000000001       0.72863946000000002        0.0000000000000000     
  0.20175195000000001       0.27583914999999998        0.0000000000000000     
  0.79603889000000005       0.72159035000000005        0.0000000000000000     
  0.71761666000000002       0.19748431999999999        0.0000000000000000     
  0.28462607000000001       0.80251899999999998        0.0000000000000000     
  0.69134598999999997       0.49261972999999998        0.0000000000000000     
  0.44720578999999999       0.58582935999999997        0.0000000000000000     
  0.24242269999999999       0.37228174000000003        0.0000000000000000     
  0.38265623999999998       0.93072131999999996        0.0000000000000000     
  0.60971754000000000       0.91988369000000003        0.0000000000000000     
   7.9163609999999995E-002  0.60979116000000000        0.0000000000000000     
  0.92010649000000000       0.61081183999999999        0.0000000000000000     
  0.61954008999999999        7.1530830000000004E-002   0.0000000000000000     
  0.91882012999999996       0.38917363999999999        0.0000000000000000     
  0.39086346000000000        8.0652249999999995E-002   0.0000000000000000     
   7.9183480000000001E-002  0.38966213000000000        0.0000000000000000     
  0.59114111999999996       0.49294315000000000        0.0000000000000000     
  0.63337980999999999       0.64485914000000000        0.0000000000000000     
  0.50012352000000004       0.29676539000000002        0.0000000000000000     
  0.82552601000000003       0.92753492000000004        0.0000000000000000     
  0.92774772999999999       0.82498556999999995        0.0000000000000000     
   7.1970870000000006E-002  0.17510291000000000        0.0000000000000000     
  0.17422821999999999        7.2635640000000001E-002   0.0000000000000000     
  0.82510813000000005        7.2134840000000006E-002   0.0000000000000000     
  0.92754665000000003       0.17446275999999999        0.0000000000000000     
  0.17501022999999999       0.92789951999999998        0.0000000000000000     
   7.2464680000000004E-002  0.82554053000000005        0.0000000000000000     
  0.30731587999999999       0.50885354999999999        0.0000000000000000     
  0.59033407999999998       0.22171178999999999        0.0000000000000000     
  0.40109191999999999       0.78725542000000004        0.0000000000000000     
  0.35420917000000002       0.63754104000000000        0.0000000000000000     
  0.15983976999999999       0.56665573000000002        0.0000000000000000     
  0.84108459999999996       0.56757886999999996        0.0000000000000000     
  0.83902096000000004       0.43344338999999998        0.0000000000000000     
  0.43230028999999998       0.16004268999999999        0.0000000000000000     
  0.57536027999999995       0.83041363999999995        0.0000000000000000     
  0.15771898000000001       0.42747892999999998        0.0000000000000000     
  0.34021692999999997       0.34221559000000001        0.0000000000000000     
  0.56002271999999997       0.57501117999999996        0.0000000000000000     
  0.65344329000000001       0.78147597999999996        0.0000000000000000     
   0.0000000000000000        0.0000000000000000        0.0000000000000000     
   1.0000000000000000        0.0000000000000000        0.0000000000000000     
   1.0000000000000000        1.0000000000000000        0.0000000000000000     
   0.0000000000000000        1.0000000000000000        0.0000000000000000     
  0.11111111000000000        0.0000000000000000        0.0000000000000000     
  0.22222222000000000        0.0000000000000000        0.0000000000000000     
  0.33333332999999998        0.0000000000000000        0.0000000000000000     
  0.44444444000000000        0.0000000000000000        0.0000000000000000     
  0.55555555999999995        0.0000000000000000        0.0000000000000000     
  0.66666667000000002        0.0000000000000000        0.0000000000000000     
  0.77777777999999997        0.0000000000000000        0.0000000000000000     
  0.88888889000000004        0.0000000000000000        0.0000000000000000     
   1.0000000000000000       0.11111111000000000        0.0000000000000000     
   1.0000000000000000       0.22222222000000000        0.0000000000000000     
   1.0000000000000000       0.33333332999999998        0.0000000000000000     
   1.0000000000000000       0.44444444000000000        0.0000000000000000     
   1.0000000000000000       0.55555555999999995        0.0000000000000000     
   1.0000000000000000       0.66666667000000002        0.0000000000000000     
   1.0000000000000000       0.77777777999999997        0.0000000000000000     
   1.0000000000000000       0.88888889000000004        0.0000000000000000     
  0.88888889000000004        1.0000000000000000        0.0000000000000000     
  0.77777777999999997        1.0000000000000000        0.0000000000000000     
  0.66666667000000002        1.0000000000000000        0.0000000000000000     
  0.55555555999999995        1.0000000000000000        0.0000000000000000     
  0.44444444000000000        1.0000000000000000        0.0000000000000000     
  0.33333332999999998        1.0000000000000000        0.0000000000000000     
  0.22222222000000000        1.0000000000000000        0.0000000000000000     
  0.11111111000000000        1.0000000000000000        0.0000000000000000     
   0.0000000000000000       0.11111111000000000        0.0000000000000000     
   0.0000000000000000       0.22222222000000000        0.0000000000000000     
[...]
 CELL_DATA         354
 SCALARS U float
 LOOKUP_TABLE default
    0.11893605788794149591E+00
    0.18812170451514279024E+00
    0.16671537631946126146E+00
    0.23856092411662432884E+00
    0.17146116965739863214E+00
    0.20851454024991955549E+00
    0.27334498724005718007E+00
    0.22388559364213592162E+00
    0.40883745841147234312E+00
    0.47801498392957553207E+00
    0.58529681368108743555E+00
    0.53472102114438846421E+00
    0.62478413108764196959E+00
    0.62965847079867431901E+00
    0.59616936553125066123E+00
    0.62432399715009523344E+00
    0.50865625850862705715E+00
    0.43344252901238378151E+00
    0.35028304675697585768E+00
    0.39758987830257969120E+00
    0.23928770860485779060E+00
    0.24818590723111633167E+00
    0.28936785703215711640E+00
    0.26743487132852555854E+00
    0.29589153838326576196E+00
    0.29374209358990172047E+00
    0.26643999620359409830E+00
    0.28292740778949770908E+00
    0.19898674003449690062E+00
    0.17431971068645057965E+00
    0.12568392871539749156E+00
    0.15540995552488467979E+00
    0.13495163766434284391E+00
    0.12203842722960853151E+00
    0.14284132138408844881E+00
    0.13657159985458888762E+00
    0.15994120122987703914E+00
    0.13663997949712466951E+00
    0.11623200125087343459E+00
    0.12292299826013519670E+00
    0.92221852374252372142E-01
    0.98500167984006806177E-01
    0.92083341507592841868E-01
    0.96576097980675068566E-01
    0.10704954749706528661E+00
    0.99665937498441214970E-01
    0.11278880321349624150E+00
    0.10215452144830110270E+00
    0.13565020299770796930E+00
    0.16719758958634364787E+00
    0.19689539237705791508E+00
    0.16727740713371982983E+00
    0.11519774185776140984E+00
    0.10921802193210346232E+00
    0.11296772498645220317E+00
    0.99303148640093250044E-01
    0.10172308989302303317E+00
    0.10462279431903787064E+00
    0.10387685233831982223E+00
    0.10919254541558429117E+00
    0.11083588975007184485E+00
    0.10181295395082463895E+00
    0.92462328823146103240E-01
    0.10530923088757020156E+00
    0.12254350885282284944E+00
    0.14299715908170623768E+00
    0.15456743256292865274E+00
    0.14461030014769299390E+00
    0.76018819272764548423E+00
    0.75579939501928161683E+00
    0.74972572463816189448E+00
    0.75213685821075482174E+00
    0.74452223588144617050E+00
    0.70547915939107230798E+00
    0.68926468323911393998E+00
    0.71186935899387315807E+00
    0.70290642203273545618E+00
    0.72837469833972146027E+00
    0.43054735747604211404E+00
    0.56562529927120264173E+00
    0.43024879426260620452E+00
    0.44817991717644345417E+00
    0.62614982040499378435E+00
    0.35499563914459680847E+00
    0.72844328113381040524E+00
    0.60161068906158687852E+00
    0.34198919676121514177E+00
    0.73844353349171998335E+00
    0.73445366263097677795E+00
    0.67911211009769156810E+00
    0.48132857694123609704E+00
    0.55159221291887672312E+00
    0.50807976383667652343E+00
    0.32097637608297113765E+00
    0.25732630360331826269E+00
    0.33450846389897409550E+00
    0.64685268599859613303E+00
    0.67228211851131247645E+00
    0.72075450175740840564E+00
    0.69734785959995992943E+00
    0.74079412682378154020E+00
    0.64746992498280242501E+00
    0.71155389176612127144E+00
    0.69428213004268946040E+00
    0.68358514854722995935E+00
    0.53231680463753350274E+00
    0.55037746764579531522E+00
    0.77577504153032283973E+00
    0.57650994730910076758E+00
    0.49043471790003145827E+00
    0.31512894468081975585E+00
    0.43850303983632066274E+00
    0.35461173120559130734E+00
    0.32837064963076023627E+00
    0.68726038464460292854E+00
    0.45165977530571227438E+00
    0.54451813826571993093E+00
    0.58953022820307510177E+00
    0.67174039345283520497E+00
    0.36484625813755189316E+00
    0.52931129299706192182E+00
    0.15669774511486272983E+00
    0.19233796646479514592E+00
    0.15957145310837547725E+00
    0.24946130011123848758E+00
    0.26880822341073890014E+00
    0.13921663799913816528E+00
    0.15820691769290143314E+00
    0.33375440493313746071E+00
    0.55922068088083998205E+00
    0.28056586013581302774E+00
    0.68420476544494368554E+00
    0.58428315361391958138E+00
    0.22143236231841142980E+00
    0.37165650541454037237E+00
    0.71096184446312760130E+00
    0.72368561116991003690E+00
    0.60722590372659412949E+00
    0.75115149269137271304E+00
    0.72988903861843734688E+00
    0.68762881002473985603E+00
    0.60917920872707631563E+00
    0.12270157051798012693E+00
    0.11292949363517504335E+00
    0.12856156990985079247E+00
    0.16688612193343815848E+00
    0.15228210611470452407E+00
    0.11577335632183109737E+00
    0.11638563355295893087E+00
    0.72965012869672929430E+00
    0.75890902888534250703E+00
    0.67419384046866570603E+00
    0.74052154375839696065E+00
    0.66554452142312026108E+00
    0.74672176814649149357E+00
    0.72813882769284565821E+00
    0.74906126681344509244E+00
    0.73724432757211622036E+00
    0.73813656685131201485E+00
    0.71215134400442803297E+00
    0.68869359923988049399E+00
    0.63050305379660587235E+00
    0.67384336955384305234E+00
    0.64426299222837546399E+00
    0.67562343989174566961E+00
    0.23012961502774822997E+00
    0.36029515076430113085E+00
    0.24817031361615773943E+00
    0.28604076778895809463E+00
    0.34978264184927865266E+00
    0.73829881424302579163E+00
    0.73766504234343988067E+00
    0.72026281085809651383E+00
    0.74652424245205661890E+00
    0.74217044240921281606E+00
    0.41596041025978114369E+00
    0.58143571205484434472E+00
    0.50983676329441807162E+00
    0.40979810425338830671E+00
    0.47532650133513887347E+00
    0.74958389229887567584E+00
    0.74233718200432508016E+00
    0.74434118962056516899E+00
    0.72711145615795380603E+00
    0.72825348773713027839E+00
    0.47291959392853721855E+00
    0.53262825323549745082E+00
    0.44384424616921025475E+00
    0.52982914002778469520E+00
    0.56982842135693756447E+00
    0.77506830258995362826E+00
    0.73306682146993917826E+00
    0.75412833379491450714E+00
    0.77983171298697584461E+00
    0.73874527012996560327E+00
    0.22648041846155750334E+00
    0.28139033406333235909E+00
    0.23050324116341983083E+00
    0.27407193944964552967E+00
    0.29478400285061051589E+00
    0.12982435477247944444E+00
    0.16959289767854637820E+00
    0.17989706692761314732E+00
    0.13666626486331950874E+00
    0.16356274333345352523E+00
    0.43079923192325875192E+00
    0.75703522985905646880E+00
    0.63519238774527020386E+00
    0.73745007514382465708E+00
    0.74213267700520424430E+00
    0.64076868432049405300E+00
    0.58279457542484147670E+00
    0.69926020185766568638E+00
    0.68563889706374947508E+00
    0.71673574087993185966E+00
    0.73693009286167809879E+00
    0.71315760114810011761E+00
    0.69605150040502250519E+00
    0.70169141218814790051E+00
    0.37645719296646451557E+00
    0.28994656013086905766E+00
    0.28761010033700423749E+00
    0.58958786405153340571E+00
    0.40590596967258052441E+00
    0.56901918210488733330E+00
    0.12643804879157777288E+00
    0.14453058543220076437E+00
    0.22895343028096226679E+00
    0.23054514077418752915E+00
    0.20539790676330654806E+00
    0.23051042886634462437E+00
    0.27660196015074811626E+00
    0.43685464238565019368E+00
    0.43530575190638892691E+00
    0.58539307171386578688E+00
    0.59814022274195033368E+00
    0.72092200357974700609E+00
    0.78487569433547021980E+00
    0.72351624905278122402E+00
    0.65834006410447298840E+00
    0.75815306908918578266E+00
    0.60310720474820944670E+00
    0.38799320094843636753E+00
    0.37417245444873103999E+00
    0.75487076760786431251E+00
    0.72484254386310897900E+00
    0.23178384361129988900E+00
    0.15865624645907305812E+00
    0.13408156759493689014E+00
    0.51163884740133458440E+00
    0.22357691035193430484E+00
    0.17645302363813553104E+00
    0.71527662382932122309E+00
    0.69913318019305659146E+00
    0.37908456470117285475E+00
    0.75059875282328680779E+00
    0.61491604961934864804E+00
    0.54727545158786961021E+00
    0.34098732287744637492E+00
    0.35481015006260729905E+00
    0.16148591024598615840E+00
    0.73451251192431099568E+00
    0.74197892237702944840E+00
    0.66267483574106811339E+00
    0.18755139607751292186E+00
    0.17809846161820896970E+00
    0.12307628847895771274E+00
    0.16231673943227525880E+00
    0.13507207040362609329E+00
    0.11541073018680357565E+00
    0.69066358899157864748E+00
    0.64239442210320196747E+00
    0.76836907026886036576E+00
    0.76359656860757740837E+00
    0.45835696784798807268E+00
    0.71922009901979244706E+00
    0.71924149596978859122E+00
    0.63372271735174812157E+00
    0.30547061910074113644E+00
    0.69356658200519294422E+00
    0.66205149334209922873E+00
    0.34659667908959468363E+00
    0.72543615981167330897E+00
    0.75685423747439317665E+00
    0.48429678319771174433E+00
    0.71940810544458411169E+00
    0.64693831662988943165E+00
    0.18727322520830830266E+00
    0.27280378695505841380E+00
    0.14386841974695990798E+00
    0.15548664482118818020E+00
    0.58874302997488969780E+00
    0.46218018692358292521E+00
    0.11544445571165455611E+00
    0.11606302876050203499E+00
    0.71129415598605894022E+00
    0.38603120849710947926E+00
    0.41558903350933973364E+00
    0.74309633517739370756E+00
    0.22231994983831840362E+00
    0.64649029797912072048E+00
    0.68029349236634217846E+00
    0.19695613166830819307E+00
    0.74237086391390205709E+00
    0.58196237651677740210E+00
    0.72680721338732745540E+00
    0.44985961336341356853E+00
    0.70442957886243950938E+00
    0.23507308299226609138E+00
    0.27946445036845773968E+00
    0.55551566015868547588E+00
    0.71647177916276705290E+00
    0.73488844494242444583E+00
    0.40956501587931637420E+00
    0.71918298424688165138E+00
    0.72808509619303674043E+00
    0.39927927344518443498E+00
    0.34955609022777911488E+00
    0.13361997608759956790E+00
    0.83683069019550151979E-01
    0.17989435124640568153E+00
    0.12084988108688786423E+00
    0.16316725055417499735E+00
    0.17668984318197361594E+00
    0.26345977015538912802E+00
    0.21805161854722310277E+00
    0.18369257909023339881E+00
    0.21152389674048249768E+00
    0.33206277506006381950E+00
    0.46694483977909168049E+00
    0.47377548730446594760E+00
    0.39891064450144492204E+00
    0.27970189121633270979E+00
    0.13421183579324960644E+00
    0.13306961164678812737E+00
    0.12166208053426255664E+00
    0.10837939795317716452E+00
    0.89825734371225499086E-01
    0.94464465340100417512E-01
    0.13192979405761445788E+00
    0.13334073657242490052E+00
    0.93779355194044067279E-01
    0.80164442423835885476E-01
    0.83824519187928228647E-01
    0.10662682564578175592E+00
    0.14173158817452535807E+00
    0.21144373842561234311E+00
    0.67229800932809238856E-01
    0.54853973870014997860E-01
    0.52425409447970951204E-01
    0.61989870659292921340E-01
    0.75446011724029010681E-01
    0.10668791106581763939E+00
    0.17541145496953608474E+00
