# vtk DataFile Version 3.0
LAPLACIEN  2D
ASCII
DATASET UNSTRUCTURED_GRID
 POINTS         391  float
  0.50371505999999999       0.50367786999999997        0.0000000000000000     
  0.29013556000000001       0.29014535000000002        0.0000000000000000     
  0.70165584999999997       0.71206597999999999        0.0000000000000000     
  0.70304188999999995       0.30176619999999998        0.0000000000000000     
  0.30920671999999999       0.71149227999999998        0.0000000000000000     
  0.79044983999999996       0.49884783999999999        0.0000000000000000     
  0.49102621000000002       0.20968644000000000        0.0000000000000000     
  0.49912957000000002       0.77208717000000004        0.0000000000000000     
  0.21724072999999999       0.48989389000000000        0.0000000000000000     
  0.83255933999999998       0.83046598000000005        0.0000000000000000     
  0.16646774000000000       0.17015694000000001        0.0000000000000000     
  0.83054514999999995       0.16736480000000001        0.0000000000000000     
  0.16953130999999999       0.83265739000000005        0.0000000000000000     
  0.42166445000000002       0.36345201999999999        0.0000000000000000     
  0.64462200999999997       0.56347807999999999        0.0000000000000000     
  0.35324633999999999       0.56311191000000005        0.0000000000000000     
  0.65456411000000003       0.84856860999999995        0.0000000000000000     
  0.35141477999999998       0.15563974000000000        0.0000000000000000     
  0.15290967000000000       0.35206625000000003        0.0000000000000000     
  0.82942241000000005       0.34936866000000000        0.0000000000000000     
  0.84390527000000004       0.64441694999999999        0.0000000000000000     
  0.63699174999999997       0.14284276000000001        0.0000000000000000     
  0.15620682999999999       0.64648446999999998        0.0000000000000000     
  0.36426062999999997       0.85756310999999996        0.0000000000000000     
  0.63489340999999999       0.40519052000000000        0.0000000000000000     
  0.52518872999999999       0.65957078000000002        0.0000000000000000     
  0.32158959999999998       0.42298103999999997        0.0000000000000000     
  0.58861710000000000       0.31711036999999997        0.0000000000000000     
  0.42078418000000001       0.69497151999999995        0.0000000000000000     
  0.48608786999999998       0.89334152000000000        0.0000000000000000     
   9.7084320000000002E-002  0.50000000000000000        0.0000000000000000     
  0.90291568000000000       0.50000000000000000        0.0000000000000000     
  0.51392453000000005       0.10668648999999999        0.0000000000000000     
  0.59792566999999996       0.73122754000000001        0.0000000000000000     
  0.74510058999999995       0.41124730999999998        0.0000000000000000     
  0.73212551999999997       0.90191560000000004        0.0000000000000000     
   9.7784830000000003E-002  0.26957329000000002        0.0000000000000000     
  0.26711221000000002        9.8671499999999995E-002   0.0000000000000000     
  0.90191560000000004       0.26787448000000003        0.0000000000000000     
  0.90118569000000004       0.73039821000000005        0.0000000000000000     
  0.73122947000000005        9.8017859999999998E-002   0.0000000000000000     
   9.8084400000000002E-002  0.73212551999999997        0.0000000000000000     
  0.26957329000000002       0.90221516999999996        0.0000000000000000     
  0.39283522999999998       0.25360379000000000        0.0000000000000000     
  0.74480864000000002       0.60495284999999999        0.0000000000000000     
  0.25505132000000003       0.60593640999999998        0.0000000000000000     
  0.52159297999999998       0.40671636000000000        0.0000000000000000     
  0.40768852000000000       0.47699891000000000        0.0000000000000000     
   9.1467049999999994E-002   9.1876959999999994E-002   0.0000000000000000     
  0.90842484999999995       0.90819225000000003        0.0000000000000000     
  0.90820104999999995        9.1566729999999999E-002   0.0000000000000000     
   9.1807449999999999E-002  0.90843574000000005        0.0000000000000000     
  0.27098960000000000       0.20527094000000001        0.0000000000000000     
  0.73457293999999995       0.79835387000000002        0.0000000000000000     
  0.79817773000000003       0.25713470999999999        0.0000000000000000     
  0.20747797000000001       0.72863946000000002        0.0000000000000000     
  0.20175195000000001       0.27583914999999998        0.0000000000000000     
  0.79603889000000005       0.72159035000000005        0.0000000000000000     
  0.71761666000000002       0.19748431999999999        0.0000000000000000     
  0.28462607000000001       0.80251899999999998        0.0000000000000000     
  0.69134598999999997       0.49261972999999998        0.0000000000000000     
  0.44720578999999999       0.58582935999999997        0.0000000000000000     
  0.24242269999999999       0.37228174000000003        0.0000000000000000     
  0.38265623999999998       0.93072131999999996        0.0000000000000000     
  0.60971754000000000       0.91988369000000003        0.0000000000000000     
   7.9163609999999995E-002  0.60979116000000000        0.0000000000000000     
  0.92010649000000000       0.61081183999999999        0.0000000000000000     
  0.61954008999999999        7.1530830000000004E-002   0.0000000000000000     
  0.91882012999999996       0.38917363999999999        0.0000000000000000     
  0.39086346000000000        8.0652249999999995E-002   0.0000000000000000     
   7.9183480000000001E-002  0.38966213000000000        0.0000000000000000     
  0.59114111999999996       0.49294315000000000        0.0000000000000000     
  0.63337980999999999       0.64485914000000000        0.0000000000000000     
  0.50012352000000004       0.29676539000000002        0.0000000000000000     
  0.82552601000000003       0.92753492000000004        0.0000000000000000     
  0.92774772999999999       0.82498556999999995        0.0000000000000000     
   7.1970870000000006E-002  0.17510291000000000        0.0000000000000000     
  0.17422821999999999        7.2635640000000001E-002   0.0000000000000000     
  0.82510813000000005        7.2134840000000006E-002   0.0000000000000000     
  0.92754665000000003       0.17446275999999999        0.0000000000000000     
  0.17501022999999999       0.92789951999999998        0.0000000000000000     
   7.2464680000000004E-002  0.82554053000000005        0.0000000000000000     
  0.30731587999999999       0.50885354999999999        0.0000000000000000     
  0.59033407999999998       0.22171178999999999        0.0000000000000000     
  0.40109191999999999       0.78725542000000004        0.0000000000000000     
  0.35420917000000002       0.63754104000000000        0.0000000000000000     
  0.15983976999999999       0.56665573000000002        0.0000000000000000     
  0.84108459999999996       0.56757886999999996        0.0000000000000000     
  0.83902096000000004       0.43344338999999998        0.0000000000000000     
  0.43230028999999998       0.16004268999999999        0.0000000000000000     
  0.57536027999999995       0.83041363999999995        0.0000000000000000     
  0.15771898000000001       0.42747892999999998        0.0000000000000000     
  0.34021692999999997       0.34221559000000001        0.0000000000000000     
  0.56002271999999997       0.57501117999999996        0.0000000000000000     
  0.65344329000000001       0.78147597999999996        0.0000000000000000     
   0.0000000000000000        0.0000000000000000        0.0000000000000000     
   1.0000000000000000        0.0000000000000000        0.0000000000000000     
   1.0000000000000000        1.0000000000000000        0.0000000000000000     
   0.0000000000000000        1.0000000000000000        0.0000000000000000     
  0.11111111000000000        0.0000000000000000        0.0000000000000000     
  0.22222222000000000        0.0000000000000000        0.0000000000000000     
  0.33333332999999998        0.0000000000000000        0.0000000000000000     
  0.44444444000000000        0.0000000000000000        0.0000000000000000     
  0.55555555999999995        0.0000000000000000        0.0000000000000000     
  0.66666667000000002        0.0000000000000000        0.0000000000000000     
  0.77777777999999997        0.0000000000000000        0.0000000000000000     
  0.88888889000000004        0.0000000000000000        0.0000000000000000     
   1.0000000000000000       0.11111111000000000        0.0000000000000000     
   1.0000000000000000       0.22222222000000000        0.0000000000000000     
   1.0000000000000000       0.33333332999999998        0.0000000000000000     
   1.0000000000000000       0.44444444000000000        0.0000000000000000     
   1.0000000000000000       0.55555555999999995        0.0000000000000000     
   1.0000000000000000       0.66666667000000002        0.0000000000000000     
   1.0000000000000000       0.77777777999999997        0.0000000000000000     
   1.0000000000000000       0.88888889000000004        0.0000000000000000     
  0.88888889000000004        1.0000000000000000        0.0000000000000000     
  0.77777777999999997        1.0000000000000000        0.0000000000000000     
  0.66666667000000002        1.0000000000000000        0.0000000000000000     
  0.55555555999999995        1.0000000000000000        0.0000000000000000     
  0.44444444000000000        1.0000000000000000        0.0000000000000000     
  0.33333332999999998        1.0000000000000000        0.0000000000000000     
  0.22222222000000000        1.0000000000000000        0.0000000000000000     
  0.11111111000000000        1.0000000000000000        0.0000000000000000     
   0.0000000000000000       0.11111111000000000        0.0000000000000000     
   0.0000000000000000       0.22222222000000000        0.0000000000000000     
[...]
 CELL_DATA         354
 SCALARS U float
 LOOKUP_TABLE default
    0.12588888962528732574E+00
    0.19683546951146310700E+00
    0.17034585732284182602E+00
    0.23643503065767390581E+00
    0.18387320135952150979E+00
    0.22042881451599896647E+00
    0.28120604029546358849E+00
    0.23492882905249279357E+00
    0.41115568310884509362E+00
    0.48089351433897165045E+00
    0.58598336904419168203E+00
    0.53547767271998447658E+00
    0.62408952788139715473E+00
    0.62787606000495055358E+00
    0.59518225605055730121E+00
    0.62318302807557146572E+00
    0.51090947336833347769E+00
    0.43795605727678721397E+00
    0.36023981511899316743E+00
    0.40552096507186385921E+00
    0.25230175649383207448E+00
    0.26211840814678605271E+00
    0.30039689327087765180E+00
    0.27932001153525126691E+00
    0.30469822991294776005E+00
    0.30266926390963344584E+00
    0.27558557056225074788E+00
    0.29219524475239649908E+00
    0.20785537339111731514E+00
    0.18392696964646337854E+00
    0.13388467579408241948E+00
    0.16372235056739320447E+00
    0.14140476593673881323E+00
    0.12950299975973647570E+00
    0.14852471182661250437E+00
    0.14281908109445398680E+00
    0.16448334416997076324E+00
    0.14245681044217761713E+00
    0.12297046906575305469E+00
    0.12996772718377899714E+00
    0.98618564437957093038E-01
    0.10487379191267615086E+00
    0.98173101193443246260E-01
    0.10291389960529009895E+00
    0.11383385322429415143E+00
    0.10727834107462763669E+00
    0.11898112719883159605E+00
    0.10861177608203184675E+00
    0.14102344511847716979E+00
    0.17031787466243664131E+00
    0.19664026449998067703E+00
    0.16923973944223211219E+00
    0.12363003354511159504E+00
    0.11882002468618949043E+00
    0.12093286415029179393E+00
    0.10802683259253187398E+00
    0.10781627028658306855E+00
    0.11088780361812175523E+00
    0.11042453882573929902E+00
    0.11615081796989909502E+00
    0.11736210135347582839E+00
    0.10882468299783383536E+00
    0.98801831913416598985E-01
    0.11167143282785602088E+00
    0.12798724910986089554E+00
    0.14799633211848389758E+00
    0.15760461983178331025E+00
    0.14830644886941860006E+00
    0.75701219324573953973E+00
    0.74909515552060979005E+00
    0.74151225017646293924E+00
    0.74707245042474768049E+00
    0.73697757296462995669E+00
    0.69968679855255921929E+00
    0.68165396021463653398E+00
    0.70249174904379874107E+00
    0.69398661498537927983E+00
    0.72043914531012909208E+00
    0.42589168364642826514E+00
    0.55427647861200946000E+00
    0.42926381171525873626E+00
    0.44346314935289909975E+00
    0.61451081210466185212E+00
    0.35386119394216153378E+00
    0.72558285750349427179E+00
    0.61750245852180318806E+00
    0.36866427708160171006E+00
    0.74090281813563596547E+00
    0.73212483923499060978E+00
    0.69225331644764420691E+00
    0.50303589058972686399E+00
    0.54839415689631509920E+00
    0.49962648858507885397E+00
    0.32389598939070640693E+00
    0.26513191378987271962E+00
    0.33771651766507954084E+00
    0.63758060845930053517E+00
    0.66286173854889418600E+00
    0.71433816207311195967E+00
    0.68737753736826090467E+00
    0.73308974418407246709E+00
    0.63592773999015661524E+00
    0.70416523473073289185E+00
    0.69627804886579514054E+00
    0.68640225718800162991E+00
    0.56073415590160624600E+00
    0.57753661183725779615E+00
    0.77219502279217566709E+00
    0.56443075982885271280E+00
    0.48159396622168537672E+00
    0.32944573272668237207E+00
    0.43567537335480560623E+00
    0.36197303125947177804E+00
    0.33545499185215277294E+00
    0.67775588056991153962E+00
    0.45421478956399130578E+00
    0.53502908661150350156E+00
    0.57882664305368103363E+00
    0.66124031139359706888E+00
    0.36283351307006900255E+00
    0.52229279553878615872E+00
    0.16465177147809084701E+00
    0.20080441374267787857E+00
    0.16631563366887647248E+00
    0.25970845497248373768E+00
    0.27944363286102946731E+00
    0.14499998376872824668E+00
    0.16486114043983338129E+00
    0.34214194346188209206E+00
    0.55049012751175019353E+00
    0.29308209278329666603E+00
    0.67454822109544232411E+00
    0.58130121956987002019E+00
    0.23254090314273567763E+00
    0.37487086056344604001E+00
    0.70171496956865087036E+00
    0.71595042451518597915E+00
    0.60122574925298921666E+00
    0.74397758151296733420E+00
    0.72427432100123445569E+00
    0.67861582456583180445E+00
    0.60259443332004314353E+00
    0.12914512507522546425E+00
    0.11915723012103046630E+00
    0.13462967964975081081E+00
    0.17581060074085061440E+00
    0.16147165230126472868E+00
    0.12125141996961763535E+00
    0.12188976048979686950E+00
    0.72425262696762360282E+00
    0.75506081774807531914E+00
    0.68557493843892636232E+00
    0.73512247732283286794E+00
    0.67886303145948856397E+00
    0.74261350860257091533E+00
    0.72022686796952495314E+00
    0.74151584557641503359E+00
    0.73114756528346824815E+00
    0.72941888239044616604E+00
    0.70432350516220054715E+00
    0.68060770537245895984E+00
    0.62367256284694572166E+00
    0.66343975101085628232E+00
    0.63828930652607596130E+00
    0.66425966997792462720E+00
    0.24287350280382316581E+00
    0.36517759020884160703E+00
    0.26128226240780322298E+00
    0.29304845147018132590E+00
    0.35232757912496470709E+00
    0.73038856730000745188E+00
    0.73136781692104990693E+00
    0.71139861346964738953E+00
    0.73917523502845461358E+00
    0.73544777078504108836E+00
    0.42917148747789740648E+00
    0.57291607067230720940E+00
    0.50259231516395330708E+00
    0.42318932316374152647E+00
    0.47500583427913889434E+00
    0.74329305493746922195E+00
    0.73547683273912778379E+00
    0.73749050455072850951E+00
    0.71999887556275543599E+00
    0.71981232790454308113E+00
    0.48082938492528337626E+00
    0.52474805488457931801E+00
    0.44498960869449888378E+00
    0.53076635548684480970E+00
    0.55943667675399177952E+00
    0.77057435685157249505E+00
    0.72786326570069781461E+00
    0.75118566956879495589E+00
    0.77496625865315738046E+00
    0.73765530045435090400E+00
    0.23912535698001749496E+00
    0.28597855677451960998E+00
    0.23848194483429796531E+00
    0.28529910488444676364E+00
    0.30129206893698523562E+00
    0.13620557250890896750E+00
    0.17963656036593445009E+00
    0.18826720251527417904E+00
    0.14512512730358906321E+00
    0.17038324402474905317E+00
    0.46253362951170906570E+00
    0.75849392317237140926E+00
    0.64880229756267804309E+00
    0.73428138574020251905E+00
    0.74194466556751947905E+00
    0.62808117197608959170E+00
    0.57155027784326206675E+00
    0.68887292184326542888E+00
    0.67275201993518840560E+00
    0.70686636289992010873E+00
    0.72924154236731086876E+00
    0.70478552361065038845E+00
    0.68592745797568044352E+00
    0.69514245804850272048E+00
    0.40502116180307390358E+00
    0.31091115926666285096E+00
    0.30613479317033398530E+00
    0.58147304301327162879E+00
    0.40550934109925573789E+00
    0.56246942693681933889E+00
    0.13336456053359002638E+00
    0.15364582456448050429E+00
    0.24088066974403007925E+00
    0.24308887552190938663E+00
    0.21752265540618823114E+00
    0.24565676453147095026E+00
    0.28827976356548257186E+00
    0.44767005728000519582E+00
    0.44192231818583593839E+00
    0.58685070202454314714E+00
    0.59382986291271833146E+00
    0.71467390555611387537E+00
    0.77964843629923163970E+00
    0.71727440213744375619E+00
    0.66177420829260402702E+00
    0.75301221667149720318E+00
    0.59107378656886688795E+00
    0.38926141434051109158E+00
    0.37358930410789381593E+00
    0.74921396051735600352E+00
    0.71813356628073277133E+00
    0.24160871633745750753E+00
    0.16968412468237722979E+00
    0.14044581434588598867E+00
    0.51450569931443856930E+00
    0.24066826471213006999E+00
    0.18756718214592321692E+00
    0.70516922496777001417E+00
    0.69295353136168502672E+00
    0.37945749458029431889E+00
    0.74311813264424975145E+00
    0.61517298890299854097E+00
    0.54828034442940942750E+00
    0.34944938531794522696E+00
    0.36487276710134119995E+00
    0.16764550074115086575E+00
    0.72965375085350880902E+00
    0.73489344626806651917E+00
    0.65717326905014150640E+00
    0.19658184862276692484E+00
    0.18897883181771252259E+00
    0.12845754848702523043E+00
    0.17070715246920237229E+00
    0.14326263358370261436E+00
    0.12082661536362698795E+00
    0.68441449949552723986E+00
    0.64787258806386416321E+00
    0.76332278428382682733E+00
    0.75840225950511430675E+00
    0.45193694734506895117E+00
    0.71096314608015398484E+00
    0.70799439869450186968E+00
    0.62238232368665724614E+00
    0.30587303261076576044E+00
    0.68566130647518808150E+00
    0.65025540009520843565E+00
    0.34499660715415181311E+00
    0.72218125337029692723E+00
    0.75722421951311347232E+00
    0.50743207704796267077E+00
    0.71083842057311075191E+00
    0.64025306210724153289E+00
    0.19999690696898203557E+00
    0.28703226080298516187E+00
    0.14984236606221768007E+00
    0.16221554365704937695E+00
    0.58691766838611170165E+00
    0.46964177298625470192E+00
    0.12096712177394206011E+00
    0.12168967735262445351E+00
    0.70098099612550257564E+00
    0.39072489798068282818E+00
    0.41549434322406686437E+00
    0.73856495943758770917E+00
    0.23322601462663788974E+00
    0.63421592609523502748E+00
    0.69513293493348837782E+00
    0.20394400418795660679E+00
    0.73730717277802382270E+00
    0.57277919482815475849E+00
    0.71719966476063512495E+00
    0.44361812738138833856E+00
    0.69629522148105282842E+00
    0.24624174916010949099E+00
    0.29158763941570087219E+00
    0.55362684731604439037E+00
    0.70927074514452448373E+00
    0.72792905272575791908E+00
    0.42114393147139572715E+00
    0.71322753040103836764E+00
    0.71834604300537230337E+00
    0.42666921362915288807E+00
    0.35159631416754016930E+00
    0.14279128628146070534E+00
    0.90849151076891843104E-01
    0.19259313361192506586E+00
    0.13141422190607360276E+00
    0.16663856443665089890E+00
    0.17900432328025397966E+00
    0.25831443821597283028E+00
    0.21638572120695492851E+00
    0.19424510773012371168E+00
    0.22227205011239659083E+00
    0.34212437183226912518E+00
    0.47235378856126364333E+00
    0.47896148490403211984E+00
    0.40632327860898204142E+00
    0.29080279614683024469E+00
    0.14653945413064073389E+00
    0.14587693209323771004E+00
    0.13435921855925003765E+00
    0.11991610805165706100E+00
    0.99966548298730223410E-01
    0.10250701549614558983E+00
    0.13867112336542194995E+00
    0.13884629616864069268E+00
    0.10035625056044068792E+00
    0.87400258021656698770E-01
    0.90523379255844055313E-01
    0.11323098867031100578E+00
    0.14630924360002717233E+00
    0.21103799857422583797E+00
    0.75275870339086295435E-01
    0.62526392440607536649E-01
    0.60087601098895930540E-01
    0.69578697086412399919E-01
    0.83074729281605252940E-01
    0.11247003657236506746E+00
    0.17780658290155618162E+00
