# vtk DataFile Version 3.0
LAPLACIEN  2D
ASCII
DATASET UNSTRUCTURED_GRID
 POINTS         391  float
  0.50371505999999999       0.50367786999999997        0.0000000000000000     
  0.29013556000000001       0.29014535000000002        0.0000000000000000     
  0.70165584999999997       0.71206597999999999        0.0000000000000000     
  0.70304188999999995       0.30176619999999998        0.0000000000000000     
  0.30920671999999999       0.71149227999999998        0.0000000000000000     
  0.79044983999999996       0.49884783999999999        0.0000000000000000     
  0.49102621000000002       0.20968644000000000        0.0000000000000000     
  0.49912957000000002       0.77208717000000004        0.0000000000000000     
  0.21724072999999999       0.48989389000000000        0.0000000000000000     
  0.83255933999999998       0.83046598000000005        0.0000000000000000     
  0.16646774000000000       0.17015694000000001        0.0000000000000000     
  0.83054514999999995       0.16736480000000001        0.0000000000000000     
  0.16953130999999999       0.83265739000000005        0.0000000000000000     
  0.42166445000000002       0.36345201999999999        0.0000000000000000     
  0.64462200999999997       0.56347807999999999        0.0000000000000000     
  0.35324633999999999       0.56311191000000005        0.0000000000000000     
  0.65456411000000003       0.84856860999999995        0.0000000000000000     
  0.35141477999999998       0.15563974000000000        0.0000000000000000     
  0.15290967000000000       0.35206625000000003        0.0000000000000000     
  0.82942241000000005       0.34936866000000000        0.0000000000000000     
  0.84390527000000004       0.64441694999999999        0.0000000000000000     
  0.63699174999999997       0.14284276000000001        0.0000000000000000     
  0.15620682999999999       0.64648446999999998        0.0000000000000000     
  0.36426062999999997       0.85756310999999996        0.0000000000000000     
  0.63489340999999999       0.40519052000000000        0.0000000000000000     
  0.52518872999999999       0.65957078000000002        0.0000000000000000     
  0.32158959999999998       0.42298103999999997        0.0000000000000000     
  0.58861710000000000       0.31711036999999997        0.0000000000000000     
  0.42078418000000001       0.69497151999999995        0.0000000000000000     
  0.48608786999999998       0.89334152000000000        0.0000000000000000     
   9.7084320000000002E-002  0.50000000000000000        0.0000000000000000     
  0.90291568000000000       0.50000000000000000        0.0000000000000000     
  0.51392453000000005       0.10668648999999999        0.0000000000000000     
  0.59792566999999996       0.73122754000000001        0.0000000000000000     
  0.74510058999999995       0.41124730999999998        0.0000000000000000     
  0.73212551999999997       0.90191560000000004        0.0000000000000000     
   9.7784830000000003E-002  0.26957329000000002        0.0000000000000000     
  0.26711221000000002        9.8671499999999995E-002   0.0000000000000000     
  0.90191560000000004       0.26787448000000003        0.0000000000000000     
  0.90118569000000004       0.73039821000000005        0.0000000000000000     
  0.73122947000000005        9.8017859999999998E-002   0.0000000000000000     
   9.8084400000000002E-002  0.73212551999999997        0.0000000000000000     
  0.26957329000000002       0.90221516999999996        0.0000000000000000     
  0.39283522999999998       0.25360379000000000        0.0000000000000000     
  0.74480864000000002       0.60495284999999999        0.0000000000000000     
  0.25505132000000003       0.60593640999999998        0.0000000000000000     
  0.52159297999999998       0.40671636000000000        0.0000000000000000     
  0.40768852000000000       0.47699891000000000        0.0000000000000000     
   9.1467049999999994E-002   9.1876959999999994E-002   0.0000000000000000     
  0.90842484999999995       0.90819225000000003        0.0000000000000000     
  0.90820104999999995        9.1566729999999999E-002   0.0000000000000000     
   9.1807449999999999E-002  0.90843574000000005        0.0000000000000000     
  0.27098960000000000       0.20527094000000001        0.0000000000000000     
  0.73457293999999995       0.79835387000000002        0.0000000000000000     
  0.79817773000000003       0.25713470999999999        0.0000000000000000     
  0.20747797000000001       0.72863946000000002        0.0000000000000000     
  0.20175195000000001       0.27583914999999998        0.0000000000000000     
  0.79603889000000005       0.72159035000000005        0.0000000000000000     
  0.71761666000000002       0.19748431999999999        0.0000000000000000     
  0.28462607000000001       0.80251899999999998        0.0000000000000000     
  0.69134598999999997       0.49261972999999998        0.0000000000000000     
  0.44720578999999999       0.58582935999999997        0.0000000000000000     
  0.24242269999999999       0.37228174000000003        0.0000000000000000     
  0.38265623999999998       0.93072131999999996        0.0000000000000000     
  0.60971754000000000       0.91988369000000003        0.0000000000000000     
   7.9163609999999995E-002  0.60979116000000000        0.0000000000000000     
  0.92010649000000000       0.61081183999999999        0.0000000000000000     
  0.61954008999999999        7.1530830000000004E-002   0.0000000000000000     
  0.91882012999999996       0.38917363999999999        0.0000000000000000     
  0.39086346000000000        8.0652249999999995E-002   0.0000000000000000     
   7.9183480000000001E-002  0.38966213000000000        0.0000000000000000     
  0.59114111999999996       0.49294315000000000        0.0000000000000000     
  0.63337980999999999       0.64485914000000000        0.0000000000000000     
  0.50012352000000004       0.29676539000000002        0.0000000000000000     
  0.82552601000000003       0.92753492000000004        0.0000000000000000     
  0.92774772999999999       0.82498556999999995        0.0000000000000000     
   7.1970870000000006E-002  0.17510291000000000        0.0000000000000000     
  0.17422821999999999        7.2635640000000001E-002   0.0000000000000000     
  0.82510813000000005        7.2134840000000006E-002   0.0000000000000000     
  0.92754665000000003       0.17446275999999999        0.0000000000000000     
  0.17501022999999999       0.92789951999999998        0.0000000000000000     
   7.2464680000000004E-002  0.82554053000000005        0.0000000000000000     
  0.30731587999999999       0.50885354999999999        0.0000000000000000     
  0.59033407999999998       0.22171178999999999        0.0000000000000000     
  0.40109191999999999       0.78725542000000004        0.0000000000000000     
  0.35420917000000002       0.63754104000000000        0.0000000000000000     
  0.15983976999999999       0.56665573000000002        0.0000000000000000     
  0.84108459999999996       0.56757886999999996        0.0000000000000000     
  0.83902096000000004       0.43344338999999998        0.0000000000000000     
  0.43230028999999998       0.16004268999999999        0.0000000000000000     
  0.57536027999999995       0.83041363999999995        0.0000000000000000     
  0.15771898000000001       0.42747892999999998        0.0000000000000000     
  0.34021692999999997       0.34221559000000001        0.0000000000000000     
  0.56002271999999997       0.57501117999999996        0.0000000000000000     
  0.65344329000000001       0.78147597999999996        0.0000000000000000     
   0.0000000000000000        0.0000000000000000        0.0000000000000000     
   1.0000000000000000        0.0000000000000000        0.0000000000000000     
   1.0000000000000000        1.0000000000000000        0.0000000000000000     
   0.0000000000000000        1.0000000000000000        0.0000000000000000     
  0.11111111000000000        0.0000000000000000        0.0000000000000000     
  0.22222222000000000        0.0000000000000000        0.0000000000000000     
  0.33333332999999998        0.0000000000000000        0.0000000000000000     
  0.44444444000000000        0.0000000000000000        0.0000000000000000     
  0.55555555999999995        0.0000000000000000        0.0000000000000000     
  0.66666667000000002        0.0000000000000000        0.0000000000000000     
  0.77777777999999997        0.0000000000000000        0.0000000000000000     
  0.88888889000000004        0.0000000000000000        0.0000000000000000     
   1.0000000000000000       0.11111111000000000        0.0000000000000000     
   1.0000000000000000       0.22222222000000000        0.0000000000000000     
   1.0000000000000000       0.33333332999999998        0.0000000000000000     
   1.0000000000000000       0.44444444000000000        0.0000000000000000     
   1.0000000000000000       0.55555555999999995        0.0000000000000000     
   1.0000000000000000       0.66666667000000002        0.0000000000000000     
   1.0000000000000000       0.77777777999999997        0.0000000000000000     
   1.0000000000000000       0.88888889000000004        0.0000000000000000     
  0.88888889000000004        1.0000000000000000        0.0000000000000000     
  0.77777777999999997        1.0000000000000000        0.0000000000000000     
  0.66666667000000002        1.0000000000000000        0.0000000000000000     
  0.55555555999999995        1.0000000000000000        0.0000000000000000     
  0.44444444000000000        1.0000000000000000        0.0000000000000000     
  0.33333332999999998        1.0000000000000000        0.0000000000000000     
  0.22222222000000000        1.0000000000000000        0.0000000000000000     
  0.11111111000000000        1.0000000000000000        0.0000000000000000     
   0.0000000000000000       0.11111111000000000        0.0000000000000000     
   0.0000000000000000       0.22222222000000000        0.0000000000000000     
[...]
 CELL_DATA         354
 SCALARS U float
 LOOKUP_TABLE default
    0.18746168735824910237E-02
    0.12689317279259716351E-01
    0.33642021357426221684E-02
    0.59269235336504343462E-02
    0.24213487244268460177E-02
    0.31461529990901579770E-02
    0.77940173034147575137E-01
    0.13443163115536187549E-01
    0.10399463006701226142E+00
    0.10032143052238015613E+00
    0.13758664087740693494E+00
    0.12718869715533828724E+00
    0.12937578916649516980E+00
    0.13772582637489622082E+00
    0.13956113914658319075E+00
    0.14907336994068173808E+00
    0.13077621349295021069E+00
    0.11477470181464030641E+00
    0.55663745866982250465E-01
    0.99715813531096431088E-01
    0.50768119406599906962E-01
    0.77721060624705573527E-01
    0.91429744117995481734E-01
    0.65982892978582119436E-01
    0.91919385971553274617E-01
    0.97897904526339701858E-01
    0.50806949513870471036E-01
    0.10002306459980296605E+00
    0.14195034088935826189E-01
    0.38164771521087209952E-02
    0.19141112456182067872E-02
    0.23858760786873035170E-02
    0.22354233912448219675E-02
    0.19458890757473466717E-02
    0.26120662485149288151E-02
    0.24004299076796548930E-02
    0.30518319078862189697E-02
    0.24287613308011245412E-02
    0.18528585501748904337E-02
    0.19601883790145058391E-02
    0.14255660572039191916E-02
    0.15280702166495260894E-02
    0.14422123373088475279E-02
    0.14951150650717984127E-02
    0.16647136126140286896E-02
    0.14337409200739857206E-02
    0.18560635789856038454E-02
    0.16045471913809779101E-02
    0.24661638286367776329E-02
    0.34777448532939377393E-02
    0.47220001662622180377E-02
    0.37164126732314971269E-02
    0.17002126450753418749E-02
    0.13997565993051830011E-02
    0.16585599123530862971E-02
    0.12916735607125498682E-02
    0.15641281796454963113E-02
    0.15567410271599935959E-02
    0.16337331227370399927E-02
    0.16048448844510206871E-02
    0.17458676794046802064E-02
    0.15437671909653324486E-02
    0.14719315242742005492E-02
    0.16593999844466233821E-02
    0.21777170757464091658E-02
    0.26270048203121685107E-02
    0.32839739911201485528E-02
    0.29121713201200366723E-02
    0.10351047348571820739E+00
    0.10434136794658929737E+00
    0.10027038434876803241E+00
    0.11749965126270937865E+00
    0.11173776813660299401E+00
    0.11392323480906776934E+00
    0.10121448076920684656E+00
    0.80714201074988015105E-01
    0.79286085723993399155E-01
    0.95471376551520062415E-01
    0.61585826426395900990E-01
    0.78288436858968135645E-01
    0.76348437733462460805E-02
    0.42689860096566979719E-01
    0.95655121401936410441E-01
    0.88176439612107568311E-02
    0.10024785349733916773E+00
    0.10518846010338134267E+00
    0.56657219161391464413E-01
    0.10732243038208358343E+00
    0.10499007555465710018E+00
    0.12699422629721335287E+00
    0.71221040668474636104E-01
    0.20000874550343415020E-01
    0.98387712845067476497E-02
    0.48695788933625968470E-02
    0.43265515461377223802E-02
    0.50087883495506333592E-02
    0.23642059463356020210E-01
    0.76174759816917417266E-01
    0.11200985867939586282E+00
    0.94496374365806046214E-01
    0.10249409446295124071E+00
    0.86314157413445335987E-01
    0.96094972897733693662E-01
    0.10622648892536892817E+00
    0.11181167220939212947E+00
    0.10691549480689258034E+00
    0.10288521240926755407E+00
    0.11095246571222885934E+00
    0.66687857082045276513E-01
    0.38643616707293423906E-01
    0.44604797852203226238E-02
    0.31613262620042645312E-01
    0.53953838197972449689E-02
    0.55773519819128179048E-02
    0.75695017887037308046E-01
    0.78037296824372565790E-02
    0.50133472608244238067E-01
    0.94672634145563733243E-01
    0.79287816739033428748E-01
    0.74456025190909221056E-02
    0.58133655316515001066E-01
    0.26252730594699545848E-02
    0.32445705300151285802E-02
    0.28146903607578909086E-02
    0.40200592265907568804E-02
    0.44126484066263679112E-02
    0.24771734030877611346E-02
    0.27459627908425101976E-02
    0.27298158130815878414E-01
    0.80515219684218097829E-01
    0.44960680037388059058E-02
    0.70405866679607992387E-01
    0.60728193677839902020E-01
    0.36802465773017978105E-02
    0.46463665675966957236E-01
    0.91089474632770353613E-01
    0.10730469301163886309E+00
    0.87771503176300780247E-01
    0.10499722296851793368E+00
    0.10970475801928644688E+00
    0.99395605454811158941E-01
    0.86572443287554534663E-01
    0.21128896703804622530E-02
    0.19424951228368030412E-02
    0.21956795800015201960E-02
    0.27812502550058019329E-02
    0.24231519107236875604E-02
    0.20116082912231317802E-02
    0.20197496261209063606E-02
    0.10543768515772268535E+00
    0.11208987728967939601E+00
    0.13195436754550254888E+00
    0.11614698343477530829E+00
    0.13046846750996748954E+00
    0.10202874239465917205E+00
    0.81397037290797197295E-01
    0.99819729789120570373E-01
    0.11926021790371114928E+00
    0.82041771658985268578E-01
    0.10326920403456243958E+00
    0.93435769091917225682E-01
    0.10075094849621647752E+00
    0.10520125472409944112E+00
    0.98619365843416753603E-01
    0.96858589473371142775E-01
    0.33509375012962948522E-02
    0.50779545771727982451E-02
    0.34830981405024625391E-02
    0.45757372661174256986E-02
    0.51902372978345316656E-02
    0.75756837857799352864E-01
    0.11551318843777691470E+00
    0.99132564529789690688E-01
    0.86999371137612496740E-01
    0.10497554684947613124E+00
    0.17931099490509149613E-01
    0.59435733487449848855E-01
    0.11223068110299716515E+00
    0.55175702462449422586E-02
    0.72363930287275654574E-01
    0.11240298254016625745E+00
    0.80506199815969320399E-01
    0.92727243492998406849E-01
    0.74507016627066213754E-01
    0.92129452479529361231E-01
    0.62888062336275410077E-02
    0.82585760735420843393E-01
    0.42141167048324747191E-01
    0.30854790170876441463E-01
    0.70869426503606308687E-01
    0.10430016580845777319E+00
    0.10847582424386756350E+00
    0.11292755466155160460E+00
    0.10842898093036396068E+00
    0.10336693687444817313E+00
    0.33509696492365821131E-02
    0.53895624155190467730E-02
    0.38812142946943258177E-02
    0.38912002226994704505E-02
    0.47365527993719685682E-02
    0.21326817108486542315E-02
    0.24920517258586469614E-02
    0.27770181477864944349E-02
    0.20420023527395439640E-02
    0.26602954854676877719E-02
    0.97849921850458154715E-01
    0.10799745979517205718E+00
    0.94520012838774508657E-01
    0.10734685886914026309E+00
    0.10275226482585814169E+00
    0.77393254690690166386E-01
    0.70987218322633327539E-01
    0.85819181414116707529E-01
    0.82346472916374480189E-01
    0.84877383770277758934E-01
    0.10664086856066004594E+00
    0.85175733860053143287E-01
    0.83894438940538745841E-01
    0.93707590816590385918E-01
    0.63180231450142732008E-01
    0.17049529094790766282E-01
    0.37273385077638203182E-02
    0.89207407508306968413E-01
    0.63203037825800860092E-02
    0.62909028887982373912E-01
    0.20159110998055809055E-02
    0.22859963629531707650E-02
    0.31126453056483909670E-02
    0.34317704781553471337E-02
    0.30092725194904570638E-02
    0.30214266430359892728E-02
    0.40161992626699030001E-02
    0.72178144330953776173E-02
    0.58458716823804518503E-01
    0.77724248122183842158E-01
    0.90914959732251693358E-01
    0.74824607466044926185E-01
    0.11426484350449736538E+00
    0.12638255872718692774E+00
    0.98693856815036548613E-01
    0.11506981285798245640E+00
    0.99003441410504239295E-01
    0.67504626718128818430E-02
    0.86919567377165048855E-02
    0.11351795894173433155E+00
    0.11157790642088723232E+00
    0.37025621761033566774E-02
    0.23393046219741418443E-02
    0.22572023143943922840E-02
    0.44019483625913222169E-01
    0.29456853161575996362E-02
    0.26052912001735765296E-02
    0.74987091317191126305E-01
    0.78365855724399441362E-01
    0.59115566116826542831E-01
    0.88364842396905785016E-01
    0.78962737104786073772E-01
    0.83803746476107818242E-01
    0.53099173002407618754E-02
    0.44422364713512700954E-02
    0.28341699103566816292E-02
    0.10857391019038248325E+00
    0.12841813138263777350E+00
    0.11570747213605298009E+00
    0.30468956852180498207E-02
    0.26098314192252456203E-02
    0.21809710309767097770E-02
    0.25809952576302951262E-02
    0.20972812424441809355E-02
    0.20223549368430229420E-02
    0.11876758369553058747E+00
    0.11118818666515375981E+00
    0.11359749836158772318E+00
    0.10636766665920741048E+00
    0.80934760775408565170E-01
    0.86230677740149447308E-01
    0.79080137448002907341E-01
    0.90805370451763456341E-01
    0.51944648975012904998E-02
    0.96230655837261258601E-01
    0.49498227161087204884E-01
    0.75931501451708188419E-02
    0.10742959325198260523E+00
    0.10344630111540922823E+00
    0.89663586948126955400E-01
    0.10247045035173443783E+00
    0.97798745359439553937E-01
    0.26237476252356415306E-02
    0.40446062594892157743E-02
    0.25983775911312301417E-02
    0.27275446064336950763E-02
    0.92280216545279764029E-01
    0.90853405283227203770E-01
    0.20287689372549162770E-02
    0.20379653063240135528E-02
    0.76024445887323058302E-01
    0.63480159852342780968E-02
    0.64257316113097767349E-02
    0.11697802081590884249E+00
    0.33917498026327301368E-02
    0.81552604584779947450E-01
    0.12474580053234618493E+00
    0.32548123217211620203E-02
    0.11409061714792305409E+00
    0.10142151438249709383E+00
    0.94005436365877687033E-01
    0.12428130143393786855E+00
    0.82191631511066981508E-01
    0.35100334778164028401E-02
    0.39761163212608330655E-02
    0.82923700169271530314E-01
    0.71160119035162103240E-01
    0.10663425579846506908E+00
    0.53732627429680709236E-02
    0.12214887874382224231E+00
    0.81787803411209197835E-01
    0.54432673696339473057E-01
    0.57201014261726206359E-02
    0.19845943986693619608E-02
    0.11333034567303815979E-02
    0.11015108216163121274E-01
    0.15624541311515887342E-02
    0.33800622623031684189E-02
    0.37537221743839640012E-02
    0.70118530596945255473E-02
    0.54682052345470010327E-02
    0.26927363562221301799E-02
    0.66159911907325452685E-01
    0.64225452322169529484E-01
    0.78873029055671894927E-01
    0.86954806190338351790E-01
    0.74398081420551126497E-01
    0.55678038272776037010E-01
    0.27059247679231214490E-01
    0.51014601563098956050E-01
    0.58013890176884005956E-01
    0.88982987138334027760E-02
    0.10130302175239251378E-02
    0.12873270516506134763E-02
    0.22193817473308181942E-02
    0.23750398872927672676E-02
    0.14193420564189683248E-02
    0.10728827202335900447E-02
    0.11939705922106619469E-02
    0.16673719953038835390E-02
    0.26942101982698044883E-02
    0.50077658912783141326E-02
    0.75787195970503790088E-03
    0.55890228133814853426E-03
    0.52337203184788308463E-03
    0.69761040173301706174E-03
    0.95400300685678882540E-03
    0.18143972544442134569E-02
    0.37247325474159794292E-02
