# vtk DataFile Version 3.0
LAPLACIEN  2D
ASCII
DATASET UNSTRUCTURED_GRID
 POINTS         391  float
  0.50371505999999999       0.50367786999999997        0.0000000000000000     
  0.29013556000000001       0.29014535000000002        0.0000000000000000     
  0.70165584999999997       0.71206597999999999        0.0000000000000000     
  0.70304188999999995       0.30176619999999998        0.0000000000000000     
  0.30920671999999999       0.71149227999999998        0.0000000000000000     
  0.79044983999999996       0.49884783999999999        0.0000000000000000     
  0.49102621000000002       0.20968644000000000        0.0000000000000000     
  0.49912957000000002       0.77208717000000004        0.0000000000000000     
  0.21724072999999999       0.48989389000000000        0.0000000000000000     
  0.83255933999999998       0.83046598000000005        0.0000000000000000     
  0.16646774000000000       0.17015694000000001        0.0000000000000000     
  0.83054514999999995       0.16736480000000001        0.0000000000000000     
  0.16953130999999999       0.83265739000000005        0.0000000000000000     
  0.42166445000000002       0.36345201999999999        0.0000000000000000     
  0.64462200999999997       0.56347807999999999        0.0000000000000000     
  0.35324633999999999       0.56311191000000005        0.0000000000000000     
  0.65456411000000003       0.84856860999999995        0.0000000000000000     
  0.35141477999999998       0.15563974000000000        0.0000000000000000     
  0.15290967000000000       0.35206625000000003        0.0000000000000000     
  0.82942241000000005       0.34936866000000000        0.0000000000000000     
  0.84390527000000004       0.64441694999999999        0.0000000000000000     
  0.63699174999999997       0.14284276000000001        0.0000000000000000     
  0.15620682999999999       0.64648446999999998        0.0000000000000000     
  0.36426062999999997       0.85756310999999996        0.0000000000000000     
  0.63489340999999999       0.40519052000000000        0.0000000000000000     
  0.52518872999999999       0.65957078000000002        0.0000000000000000     
  0.32158959999999998       0.42298103999999997        0.0000000000000000     
  0.58861710000000000       0.31711036999999997        0.0000000000000000     
  0.42078418000000001       0.69497151999999995        0.0000000000000000     
  0.48608786999999998       0.89334152000000000        0.0000000000000000     
   9.7084320000000002E-002  0.50000000000000000        0.0000000000000000     
  0.90291568000000000       0.50000000000000000        0.0000000000000000     
  0.51392453000000005       0.10668648999999999        0.0000000000000000     
  0.59792566999999996       0.73122754000000001        0.0000000000000000     
  0.74510058999999995       0.41124730999999998        0.0000000000000000     
  0.73212551999999997       0.90191560000000004        0.0000000000000000     
   9.7784830000000003E-002  0.26957329000000002        0.0000000000000000     
  0.26711221000000002        9.8671499999999995E-002   0.0000000000000000     
  0.90191560000000004       0.26787448000000003        0.0000000000000000     
  0.90118569000000004       0.73039821000000005        0.0000000000000000     
  0.73122947000000005        9.8017859999999998E-002   0.0000000000000000     
   9.8084400000000002E-002  0.73212551999999997        0.0000000000000000     
  0.26957329000000002       0.90221516999999996        0.0000000000000000     
  0.39283522999999998       0.25360379000000000        0.0000000000000000     
  0.74480864000000002       0.60495284999999999        0.0000000000000000     
  0.25505132000000003       0.60593640999999998        0.0000000000000000     
  0.52159297999999998       0.40671636000000000        0.0000000000000000     
  0.40768852000000000       0.47699891000000000        0.0000000000000000     
   9.1467049999999994E-002   9.1876959999999994E-002   0.0000000000000000     
  0.90842484999999995       0.90819225000000003        0.0000000000000000     
  0.90820104999999995        9.1566729999999999E-002   0.0000000000000000     
   9.1807449999999999E-002  0.90843574000000005        0.0000000000000000     
  0.27098960000000000       0.20527094000000001        0.0000000000000000     
  0.73457293999999995       0.79835387000000002        0.0000000000000000     
  0.79817773000000003       0.25713470999999999        0.0000000000000000     
  0.20747797000000001       0.72863946000000002        0.0000000000000000     
  0.20175195000000001       0.27583914999999998        0.0000000000000000     
  0.79603889000000005       0.72159035000000005        0.0000000000000000     
  0.71761666000000002       0.19748431999999999        0.0000000000000000     
  0.28462607000000001       0.80251899999999998        0.0000000000000000     
  0.69134598999999997       0.49261972999999998        0.0000000000000000     
  0.44720578999999999       0.58582935999999997        0.0000000000000000     
  0.24242269999999999       0.37228174000000003        0.0000000000000000     
  0.38265623999999998       0.93072131999999996        0.0000000000000000     
  0.60971754000000000       0.91988369000000003        0.0000000000000000     
   7.9163609999999995E-002  0.60979116000000000        0.0000000000000000     
  0.92010649000000000       0.61081183999999999        0.0000000000000000     
  0.61954008999999999        7.1530830000000004E-002   0.0000000000000000     
  0.91882012999999996       0.38917363999999999        0.0000000000000000     
  0.39086346000000000        8.0652249999999995E-002   0.0000000000000000     
   7.9183480000000001E-002  0.38966213000000000        0.0000000000000000     
  0.59114111999999996       0.49294315000000000        0.0000000000000000     
  0.63337980999999999       0.64485914000000000        0.0000000000000000     
  0.50012352000000004       0.29676539000000002        0.0000000000000000     
  0.82552601000000003       0.92753492000000004        0.0000000000000000     
  0.92774772999999999       0.82498556999999995        0.0000000000000000     
   7.1970870000000006E-002  0.17510291000000000        0.0000000000000000     
  0.17422821999999999        7.2635640000000001E-002   0.0000000000000000     
  0.82510813000000005        7.2134840000000006E-002   0.0000000000000000     
  0.92754665000000003       0.17446275999999999        0.0000000000000000     
  0.17501022999999999       0.92789951999999998        0.0000000000000000     
   7.2464680000000004E-002  0.82554053000000005        0.0000000000000000     
  0.30731587999999999       0.50885354999999999        0.0000000000000000     
  0.59033407999999998       0.22171178999999999        0.0000000000000000     
  0.40109191999999999       0.78725542000000004        0.0000000000000000     
  0.35420917000000002       0.63754104000000000        0.0000000000000000     
  0.15983976999999999       0.56665573000000002        0.0000000000000000     
  0.84108459999999996       0.56757886999999996        0.0000000000000000     
  0.83902096000000004       0.43344338999999998        0.0000000000000000     
  0.43230028999999998       0.16004268999999999        0.0000000000000000     
  0.57536027999999995       0.83041363999999995        0.0000000000000000     
  0.15771898000000001       0.42747892999999998        0.0000000000000000     
  0.34021692999999997       0.34221559000000001        0.0000000000000000     
  0.56002271999999997       0.57501117999999996        0.0000000000000000     
  0.65344329000000001       0.78147597999999996        0.0000000000000000     
   0.0000000000000000        0.0000000000000000        0.0000000000000000     
   1.0000000000000000        0.0000000000000000        0.0000000000000000     
   1.0000000000000000        1.0000000000000000        0.0000000000000000     
   0.0000000000000000        1.0000000000000000        0.0000000000000000     
  0.11111111000000000        0.0000000000000000        0.0000000000000000     
  0.22222222000000000        0.0000000000000000        0.0000000000000000     
  0.33333332999999998        0.0000000000000000        0.0000000000000000     
  0.44444444000000000        0.0000000000000000        0.0000000000000000     
  0.55555555999999995        0.0000000000000000        0.0000000000000000     
  0.66666667000000002        0.0000000000000000        0.0000000000000000     
  0.77777777999999997        0.0000000000000000        0.0000000000000000     
  0.88888889000000004        0.0000000000000000        0.0000000000000000     
   1.0000000000000000       0.11111111000000000        0.0000000000000000     
   1.0000000000000000       0.22222222000000000        0.0000000000000000     
   1.0000000000000000       0.33333332999999998        0.0000000000000000     
   1.0000000000000000       0.44444444000000000        0.0000000000000000     
   1.0000000000000000       0.55555555999999995        0.0000000000000000     
   1.0000000000000000       0.66666667000000002        0.0000000000000000     
   1.0000000000000000       0.77777777999999997        0.0000000000000000     
   1.0000000000000000       0.88888889000000004        0.0000000000000000     
  0.88888889000000004        1.0000000000000000        0.0000000000000000     
  0.77777777999999997        1.0000000000000000        0.0000000000000000     
  0.66666667000000002        1.0000000000000000        0.0000000000000000     
  0.55555555999999995        1.0000000000000000        0.0000000000000000     
  0.44444444000000000        1.0000000000000000        0.0000000000000000     
  0.33333332999999998        1.0000000000000000        0.0000000000000000     
  0.22222222000000000        1.0000000000000000        0.0000000000000000     
  0.11111111000000000        1.0000000000000000        0.0000000000000000     
   0.0000000000000000       0.11111111000000000        0.0000000000000000     
   0.0000000000000000       0.22222222000000000        0.0000000000000000     
[...]
 CELL_DATA         354
 SCALARS U float
 LOOKUP_TABLE default
    0.78039444913184652375E-01
    0.13885250730946094300E+00
    0.13855789193320824926E+00
    0.24965948548112851246E+00
    0.99498198697988718409E-01
    0.13213817053648385658E+00
    0.21751408344746658852E+00
    0.14326088768707431753E+00
    0.38424372023956709921E+00
    0.45239366647209694472E+00
    0.57484096699927100804E+00
    0.52699547937383317553E+00
    0.62482548365992729433E+00
    0.63875935409536022114E+00
    0.60000038712115910666E+00
    0.62538421044683867311E+00
    0.48995786586597339651E+00
    0.39757227712726694868E+00
    0.26173881258893727519E+00
    0.32133563830404232586E+00
    0.15569562448443313718E+00
    0.15928598660369597262E+00
    0.22432186565798523104E+00
    0.19290246394485791037E+00
    0.24089555528190018108E+00
    0.23535021394736724276E+00
    0.20572106900810602226E+00
    0.22275026412199142034E+00
    0.14841045156107879333E+00
    0.11470599864299810267E+00
    0.78602819969836007497E-01
    0.10678054325700685190E+00
    0.92447682173087103452E-01
    0.75281066373693875105E-01
    0.10186940919596518262E+00
    0.94420391440584505727E-01
    0.12527414279287887866E+00
    0.95538340317881123576E-01
    0.72726683770680339292E-01
    0.75490544595193789790E-01
    0.55048503386174826857E-01
    0.60309870523407374532E-01
    0.56868936807584737070E-01
    0.59156120232082679000E-01
    0.65553288854491298387E-01
    0.53405794396744088459E-01
    0.71373997029901048439E-01
    0.60962352379098277977E-01
    0.98138762738464835333E-01
    0.14331860112796429574E+00
    0.19904503423989650113E+00
    0.15334530963709508411E+00
    0.70308359444063328603E-01
    0.56534527009689479471E-01
    0.70281457159298801884E-01
    0.52646790129041727557E-01
    0.67243662254762068264E-01
    0.67936452963460583487E-01
    0.69084531238443769308E-01
    0.69459500781188163177E-01
    0.73075009718167466266E-01
    0.62437358291916301989E-01
    0.55919319162731059847E-01
    0.67052617567999656112E-01
    0.86506552542849043941E-01
    0.10626692116071860539E+00
    0.13013675870570406978E+00
    0.11820285085530471414E+00
    0.77911510608399625610E+00
    0.80029683177846910880E+00
    0.80188853063635956442E+00
    0.78925542800177872493E+00
    0.79621507537167535151E+00
    0.74813522576216651139E+00
    0.74218448583661600360E+00
    0.76824183043426974571E+00
    0.75951032143189978196E+00
    0.78162271371528657671E+00
    0.50546047223375756285E+00
    0.66148811633456439107E+00
    0.40265735333714969268E+00
    0.47929550454884317645E+00
    0.71301155125591186845E+00
    0.38402022000166635696E+00
    0.74611189458620286175E+00
    0.46732826414749611965E+00
    0.19049222892924844164E+00
    0.68589825230680778745E+00
    0.73649591066684005902E+00
    0.56083450574023419044E+00
    0.32957306800715657769E+00
    0.53897277758693740157E+00
    0.55236511667729670805E+00
    0.28963030530810890406E+00
    0.19175018835133267325E+00
    0.27968326105934937509E+00
    0.69198240116463605176E+00
    0.73004685722492301814E+00
    0.76706602993299588533E+00
    0.76362853153653720284E+00
    0.79120039562963606627E+00
    0.72941988991444905999E+00
    0.76092972023363814049E+00
    0.63585707321337237019E+00
    0.62829497980388893108E+00
    0.37310452226694679201E+00
    0.38913808672261568367E+00
    0.78865651225964739091E+00
    0.66234690266678430959E+00
    0.54966698770205435487E+00
    0.20059262878971578781E+00
    0.45114633242808210856E+00
    0.29435371798854620407E+00
    0.25999339289436929068E+00
    0.74743097260237534307E+00
    0.37331822013631721369E+00
    0.61161873060450067108E+00
    0.68853028355101952851E+00
    0.73969309540175498530E+00
    0.36227515215328309761E+00
    0.57303081245438791669E+00
    0.10530382765843133985E+00
    0.13491309829787956343E+00
    0.11313244213210991995E+00
    0.17348219577190951424E+00
    0.19034833560923963836E+00
    0.99085383740833171684E-01
    0.11126604049889528281E+00
    0.25968745197142806269E+00
    0.59792294895745434768E+00
    0.18637846674930269586E+00
    0.73105965005762074682E+00
    0.57379614653922195178E+00
    0.15647729225874620895E+00
    0.32340397048840180405E+00
    0.75976045356449373180E+00
    0.77712035072139173941E+00
    0.63089251900690934693E+00
    0.79714953758629880642E+00
    0.76992711465393948167E+00
    0.74751216811750587077E+00
    0.62904108922723911412E+00
    0.82493454615850378420E-01
    0.74786301149379577624E-01
    0.85535172083822663680E-01
    0.11242736379975247496E+00
    0.95766242811832616444E-01
    0.78001082634137380856E-01
    0.78349043687849381778E-01
    0.76718285012251463684E+00
    0.77795297935386609200E+00
    0.57143458122167389845E+00
    0.76787139856040798058E+00
    0.54740329890070749119E+00
    0.77537618885919645795E+00
    0.77945321484930163436E+00
    0.79846791026431518379E+00
    0.77960006176562446356E+00
    0.79461446902482379961E+00
    0.76786549522346547736E+00
    0.72861298218331882470E+00
    0.68990069741001314174E+00
    0.74909585271831291564E+00
    0.69267834022352425816E+00
    0.74782542389701145424E+00
    0.14133359561374642110E+00
    0.26080627423240515528E+00
    0.15064343783239098062E+00
    0.20486507616721302827E+00
    0.26266177603880191960E+00
    0.78172128978304911140E+00
    0.78118802095877148961E+00
    0.77964234505571439193E+00
    0.79222879942237223183E+00
    0.78931065729410254672E+00
    0.31160299200657604057E+00
    0.60544502204011130253E+00
    0.57563654476139580751E+00
    0.28315441127461382642E+00
    0.42836687354120961402E+00
    0.79349706997871827241E+00
    0.77492640633865694788E+00
    0.79195181633153199918E+00
    0.76079269789054115858E+00
    0.78527278769254205137E+00
    0.35165015830394075191E+00
    0.60633164706089837104E+00
    0.41296343723802841907E+00
    0.49108178509881983409E+00
    0.64993673681586683344E+00
    0.80512437316630469653E+00
    0.77591127162527107064E+00
    0.76475071051302989655E+00
    0.81762061901722293822E+00
    0.72723994340891473520E+00
    0.13971930703150742259E+00
    0.23602362124575596014E+00
    0.16534515349048917177E+00
    0.17358088419543674097E+00
    0.21541309865588514905E+00
    0.85473894305048397912E-01
    0.98392734431630796132E-01
    0.11347036646903244095E+00
    0.79774842583436714194E-01
    0.11099069009961370913E+00
    0.23255658577223842221E+00
    0.71099675178692578470E+00
    0.51094882340595748627E+00
    0.76017111217453070537E+00
    0.71214947305373055286E+00
    0.72386382424628736842E+00
    0.66041007825532926923E+00
    0.76615422976539016009E+00
    0.76784850870217380425E+00
    0.77987558649905075470E+00
    0.78595357465437776234E+00
    0.76364178772165891562E+00
    0.76565298736347764397E+00
    0.74823042425867491989E+00
    0.21375028718297831021E+00
    0.16882113285489430687E+00
    0.17655953642974550610E+00
    0.66448533303450452170E+00
    0.38156720638993374406E+00
    0.63130514432995932239E+00
    0.80352352185316472388E-01
    0.93148539480466266416E-01
    0.13700886202284573434E+00
    0.14551999104150453723E+00
    0.12877082322514135648E+00
    0.13698469882051839130E+00
    0.17570086817971000692E+00
    0.33609753522093721578E+00
    0.37699648344389924404E+00
    0.55208117367952380672E+00
    0.61933000945797189729E+00
    0.74294672519834059621E+00
    0.81884034652482373673E+00
    0.76363455156391479850E+00
    0.58693493772030913558E+00
    0.78953290135746845291E+00
    0.70045539809927825914E+00
    0.34642474781146503915E+00
    0.38048274969870171658E+00
    0.79479955803737445397E+00
    0.77221164236155892535E+00
    0.15728955770883767951E+00
    0.94077562049976123926E-01
    0.89653537036890329492E-01
    0.42990424746266225897E+00
    0.13107681888377153978E+00
    0.11088744856707444253E+00
    0.77252335900121971157E+00
    0.72745952228793075989E+00
    0.36187095268909308388E+00
    0.79164047695272676819E+00
    0.59286518248366160133E+00
    0.52824527452733849309E+00
    0.24797881133929094988E+00
    0.25387564860876071782E+00
    0.11834396264954655242E+00
    0.77046060751403167011E+00
    0.79177976537812511104E+00
    0.69435240401707642999E+00
    0.12558341051232532748E+00
    0.10714154133083281240E+00
    0.85805349349283396854E-01
    0.10400532028098531667E+00
    0.80963461163004457610E-01
    0.78149988877967507817E-01
    0.73883858297010818195E+00
    0.56270036855078864324E+00
    0.79427663956707594828E+00
    0.79655822482434190945E+00
    0.54548718411944996376E+00
    0.77357146305598312175E+00
    0.78215729130239508571E+00
    0.71666807121019149296E+00
    0.29533955468313777271E+00
    0.73642168913440564371E+00
    0.72409212569547398708E+00
    0.35534213927056146343E+00
    0.73645578735328776077E+00
    0.71998635321361426076E+00
    0.33031809842428755397E+00
    0.77682836585127879037E+00
    0.70261936261313195917E+00
    0.11089056925144004373E+00
    0.16753152812387123172E+00
    0.10221581870452217666E+00
    0.10859276172795610804E+00
    0.57328733713804258532E+00
    0.39097926646728781153E+00
    0.77345667050533140063E-01
    0.77622334198838127683E-01
    0.76874589715437591231E+00
    0.31237698334684466106E+00
    0.35857248140277148130E+00
    0.76503827221415121596E+00
    0.14163514507638233497E+00
    0.73229417935899188130E+00
    0.54724369344021495110E+00
    0.13756241103851360452E+00
    0.78040006582347098973E+00
    0.67214533103202556141E+00
    0.78944179074529452489E+00
    0.53445874652839653329E+00
    0.75777029645060778318E+00
    0.15180206035615434468E+00
    0.17718448883226509127E+00
    0.55791059112219698601E+00
    0.74957132145719684857E+00
    0.78269132553545328612E+00
    0.27757640614799550249E+00
    0.76419166252568948572E+00
    0.79104672035800671637E+00
    0.27272800311302536347E+00
    0.29699284156325278516E+00
    0.77138578594402290589E-01
    0.40721620269899165556E-01
    0.99208964776985875123E-01
    0.56986533650306377130E-01
    0.13664020761206349674E+00
    0.15736245955186051182E+00
    0.30101162924571744917E+00
    0.22745342159423195816E+00
    0.10729005462087314038E+00
    0.13434049275028886461E+00
    0.25952672050954855854E+00
    0.42176871672180765716E+00
    0.43121761552477999579E+00
    0.34315110876886556479E+00
    0.19834909143374185314E+00
    0.61267038139734539270E-01
    0.59316631141700708330E-01
    0.50628697763096426609E-01
    0.43411466827733155571E-01
    0.33941726132676555694E-01
    0.46260484564019252463E-01
    0.86098711086879109455E-01
    0.93752655616058819255E-01
    0.52610640685327628163E-01
    0.37263440271974271334E-01
    0.42996141270836965576E-01
    0.62998486822562801968E-01
    0.10876375251588904502E+00
    0.21190120948401686141E+00
    0.24589898774306458151E-01
    0.16914610244378132375E-01
    0.15444498136376714689E-01
    0.22225838982705865832E-01
    0.32312882131576334266E-01
    0.69940212453258793213E-01
    0.15522025147539425527E+00
