# vtk DataFile Version 3.0
LAPLACIEN  2D
ASCII
DATASET UNSTRUCTURED_GRID
 POINTS         391  float
  0.50371505999999999       0.50367786999999997        0.0000000000000000     
  0.29013556000000001       0.29014535000000002        0.0000000000000000     
  0.70165584999999997       0.71206597999999999        0.0000000000000000     
  0.70304188999999995       0.30176619999999998        0.0000000000000000     
  0.30920671999999999       0.71149227999999998        0.0000000000000000     
  0.79044983999999996       0.49884783999999999        0.0000000000000000     
  0.49102621000000002       0.20968644000000000        0.0000000000000000     
  0.49912957000000002       0.77208717000000004        0.0000000000000000     
  0.21724072999999999       0.48989389000000000        0.0000000000000000     
  0.83255933999999998       0.83046598000000005        0.0000000000000000     
  0.16646774000000000       0.17015694000000001        0.0000000000000000     
  0.83054514999999995       0.16736480000000001        0.0000000000000000     
  0.16953130999999999       0.83265739000000005        0.0000000000000000     
  0.42166445000000002       0.36345201999999999        0.0000000000000000     
  0.64462200999999997       0.56347807999999999        0.0000000000000000     
  0.35324633999999999       0.56311191000000005        0.0000000000000000     
  0.65456411000000003       0.84856860999999995        0.0000000000000000     
  0.35141477999999998       0.15563974000000000        0.0000000000000000     
  0.15290967000000000       0.35206625000000003        0.0000000000000000     
  0.82942241000000005       0.34936866000000000        0.0000000000000000     
  0.84390527000000004       0.64441694999999999        0.0000000000000000     
  0.63699174999999997       0.14284276000000001        0.0000000000000000     
  0.15620682999999999       0.64648446999999998        0.0000000000000000     
  0.36426062999999997       0.85756310999999996        0.0000000000000000     
  0.63489340999999999       0.40519052000000000        0.0000000000000000     
  0.52518872999999999       0.65957078000000002        0.0000000000000000     
  0.32158959999999998       0.42298103999999997        0.0000000000000000     
  0.58861710000000000       0.31711036999999997        0.0000000000000000     
  0.42078418000000001       0.69497151999999995        0.0000000000000000     
  0.48608786999999998       0.89334152000000000        0.0000000000000000     
   9.7084320000000002E-002  0.50000000000000000        0.0000000000000000     
  0.90291568000000000       0.50000000000000000        0.0000000000000000     
  0.51392453000000005       0.10668648999999999        0.0000000000000000     
  0.59792566999999996       0.73122754000000001        0.0000000000000000     
  0.74510058999999995       0.41124730999999998        0.0000000000000000     
  0.73212551999999997       0.90191560000000004        0.0000000000000000     
   9.7784830000000003E-002  0.26957329000000002        0.0000000000000000     
  0.26711221000000002        9.8671499999999995E-002   0.0000000000000000     
  0.90191560000000004       0.26787448000000003        0.0000000000000000     
  0.90118569000000004       0.73039821000000005        0.0000000000000000     
  0.73122947000000005        9.8017859999999998E-002   0.0000000000000000     
   9.8084400000000002E-002  0.73212551999999997        0.0000000000000000     
  0.26957329000000002       0.90221516999999996        0.0000000000000000     
  0.39283522999999998       0.25360379000000000        0.0000000000000000     
  0.74480864000000002       0.60495284999999999        0.0000000000000000     
  0.25505132000000003       0.60593640999999998        0.0000000000000000     
  0.52159297999999998       0.40671636000000000        0.0000000000000000     
  0.40768852000000000       0.47699891000000000        0.0000000000000000     
   9.1467049999999994E-002   9.1876959999999994E-002   0.0000000000000000     
  0.90842484999999995       0.90819225000000003        0.0000000000000000     
  0.90820104999999995        9.1566729999999999E-002   0.0000000000000000     
   9.1807449999999999E-002  0.90843574000000005        0.0000000000000000     
  0.27098960000000000       0.20527094000000001        0.0000000000000000     
  0.73457293999999995       0.79835387000000002        0.0000000000000000     
  0.79817773000000003       0.25713470999999999        0.0000000000000000     
  0.20747797000000001       0.72863946000000002        0.0000000000000000     
  0.20175195000000001       0.27583914999999998        0.0000000000000000     
  0.79603889000000005       0.72159035000000005        0.0000000000000000     
  0.71761666000000002       0.19748431999999999        0.0000000000000000     
  0.28462607000000001       0.80251899999999998        0.0000000000000000     
  0.69134598999999997       0.49261972999999998        0.0000000000000000     
  0.44720578999999999       0.58582935999999997        0.0000000000000000     
  0.24242269999999999       0.37228174000000003        0.0000000000000000     
  0.38265623999999998       0.93072131999999996        0.0000000000000000     
  0.60971754000000000       0.91988369000000003        0.0000000000000000     
   7.9163609999999995E-002  0.60979116000000000        0.0000000000000000     
  0.92010649000000000       0.61081183999999999        0.0000000000000000     
  0.61954008999999999        7.1530830000000004E-002   0.0000000000000000     
  0.91882012999999996       0.38917363999999999        0.0000000000000000     
  0.39086346000000000        8.0652249999999995E-002   0.0000000000000000     
   7.9183480000000001E-002  0.38966213000000000        0.0000000000000000     
  0.59114111999999996       0.49294315000000000        0.0000000000000000     
  0.63337980999999999       0.64485914000000000        0.0000000000000000     
  0.50012352000000004       0.29676539000000002        0.0000000000000000     
  0.82552601000000003       0.92753492000000004        0.0000000000000000     
  0.92774772999999999       0.82498556999999995        0.0000000000000000     
   7.1970870000000006E-002  0.17510291000000000        0.0000000000000000     
  0.17422821999999999        7.2635640000000001E-002   0.0000000000000000     
  0.82510813000000005        7.2134840000000006E-002   0.0000000000000000     
  0.92754665000000003       0.17446275999999999        0.0000000000000000     
  0.17501022999999999       0.92789951999999998        0.0000000000000000     
   7.2464680000000004E-002  0.82554053000000005        0.0000000000000000     
  0.30731587999999999       0.50885354999999999        0.0000000000000000     
  0.59033407999999998       0.22171178999999999        0.0000000000000000     
  0.40109191999999999       0.78725542000000004        0.0000000000000000     
  0.35420917000000002       0.63754104000000000        0.0000000000000000     
  0.15983976999999999       0.56665573000000002        0.0000000000000000     
  0.84108459999999996       0.56757886999999996        0.0000000000000000     
  0.83902096000000004       0.43344338999999998        0.0000000000000000     
  0.43230028999999998       0.16004268999999999        0.0000000000000000     
  0.57536027999999995       0.83041363999999995        0.0000000000000000     
  0.15771898000000001       0.42747892999999998        0.0000000000000000     
  0.34021692999999997       0.34221559000000001        0.0000000000000000     
  0.56002271999999997       0.57501117999999996        0.0000000000000000     
  0.65344329000000001       0.78147597999999996        0.0000000000000000     
   0.0000000000000000        0.0000000000000000        0.0000000000000000     
   1.0000000000000000        0.0000000000000000        0.0000000000000000     
   1.0000000000000000        1.0000000000000000        0.0000000000000000     
   0.0000000000000000        1.0000000000000000        0.0000000000000000     
  0.11111111000000000        0.0000000000000000        0.0000000000000000     
  0.22222222000000000        0.0000000000000000        0.0000000000000000     
  0.33333332999999998        0.0000000000000000        0.0000000000000000     
  0.44444444000000000        0.0000000000000000        0.0000000000000000     
  0.55555555999999995        0.0000000000000000        0.0000000000000000     
  0.66666667000000002        0.0000000000000000        0.0000000000000000     
  0.77777777999999997        0.0000000000000000        0.0000000000000000     
  0.88888889000000004        0.0000000000000000        0.0000000000000000     
   1.0000000000000000       0.11111111000000000        0.0000000000000000     
   1.0000000000000000       0.22222222000000000        0.0000000000000000     
   1.0000000000000000       0.33333332999999998        0.0000000000000000     
   1.0000000000000000       0.44444444000000000        0.0000000000000000     
   1.0000000000000000       0.55555555999999995        0.0000000000000000     
   1.0000000000000000       0.66666667000000002        0.0000000000000000     
   1.0000000000000000       0.77777777999999997        0.0000000000000000     
   1.0000000000000000       0.88888889000000004        0.0000000000000000     
  0.88888889000000004        1.0000000000000000        0.0000000000000000     
  0.77777777999999997        1.0000000000000000        0.0000000000000000     
  0.66666667000000002        1.0000000000000000        0.0000000000000000     
  0.55555555999999995        1.0000000000000000        0.0000000000000000     
  0.44444444000000000        1.0000000000000000        0.0000000000000000     
  0.33333332999999998        1.0000000000000000        0.0000000000000000     
  0.22222222000000000        1.0000000000000000        0.0000000000000000     
  0.11111111000000000        1.0000000000000000        0.0000000000000000     
   0.0000000000000000       0.11111111000000000        0.0000000000000000     
   0.0000000000000000       0.22222222000000000        0.0000000000000000     
[...]
 CELL_DATA         354
 SCALARS U float
 LOOKUP_TABLE default
    0.14481175132479821594E-02
    0.15807162752684837670E-01
    0.27406000338976951348E-02
    0.50873066958360621537E-02
    0.18456587938383234391E-02
    0.24479982087003003717E-02
    0.82036876099179353861E-01
    0.26001777065270001432E-01
    0.91601772889652155474E-01
    0.87271118308539119557E-01
    0.10498517272397796252E+00
    0.10313810746061152779E+00
    0.10226207126134610748E+00
    0.11134858405159783756E+00
    0.11103958185049710161E+00
    0.11706844240851910222E+00
    0.10721277076622418023E+00
    0.10377418167566077045E+00
    0.52260276230013592846E-01
    0.91740684280795042893E-01
    0.46048373077257488684E-01
    0.80156895759267959845E-01
    0.84544666688699227075E-01
    0.69029752867691029916E-01
    0.83415449705625727139E-01
    0.92373615864075830917E-01
    0.47372547418199767444E-01
    0.92190953443243434107E-01
    0.22421827447764337837E-01
    0.76262140232414262278E-02
    0.14850543334422644428E-02
    0.18605186794553149523E-02
    0.17430399198771649380E-02
    0.14960214573144770250E-02
    0.20685379957917984783E-02
    0.18877802418524889175E-02
    0.24460114267323778380E-02
    0.19104773554120106378E-02
    0.14210164782365918099E-02
    0.14973505496158180748E-02
    0.10848502312117115024E-02
    0.11638819283308877127E-02
    0.11036361932051949684E-02
    0.11394550008281408796E-02
    0.12713962911178647817E-02
    0.10653728349703562878E-02
    0.14248453584256755289E-02
    0.12161779150056352058E-02
    0.19564088846308128056E-02
    0.28592671967213527211E-02
    0.40186465898165036476E-02
    0.31046273044367089095E-02
    0.13021311267803032611E-02
    0.10299889467926619767E-02
    0.12719174922133308706E-02
    0.95360900487716216117E-03
    0.12090930247352204424E-02
    0.11914503818710423140E-02
    0.12667346359869447944E-02
    0.12244300890477174265E-02
    0.13487333710047910880E-02
    0.11775289222754291556E-02
    0.11274138230261832993E-02
    0.12727898816252321019E-02
    0.17179611304012532176E-02
    0.20844866692155831003E-02
    0.27049780504093509821E-02
    0.23687386168833300150E-02
    0.87830398272954607330E-01
    0.82270274799805781507E-01
    0.71701238013121879056E-01
    0.94053698841418023613E-01
    0.81180573030865219031E-01
    0.81711991167358000165E-01
    0.76603828032164450468E-01
    0.66882508593616496473E-01
    0.60935303391533551798E-01
    0.70322117256249760953E-01
    0.59346669599465350087E-01
    0.72743666736193299260E-01
    0.62142763116569913612E-02
    0.41735604294089109767E-01
    0.88041347397826166810E-01
    0.81880327402598478137E-02
    0.79580541183281158779E-01
    0.10089703298286903377E+00
    0.71214226301937272323E-01
    0.87798389798573212017E-01
    0.85949247793075042590E-01
    0.10875606873705020994E+00
    0.72456248970391157194E-01
    0.21352777751534369327E-01
    0.96131311882821663534E-02
    0.38723414824156938280E-02
    0.34352190805713406045E-02
    0.40054384824554523786E-02
    0.25926485046980023152E-01
    0.62619111869812921212E-01
    0.80271230463255321963E-01
    0.71377570645924259818E-01
    0.75304993852053442316E-01
    0.69493304885187096032E-01
    0.71806837444986851282E-01
    0.91956811750087241730E-01
    0.97882118632118986223E-01
    0.10561111985164552129E+00
    0.99845686534390645783E-01
    0.98311412651300167376E-01
    0.70382239506731503198E-01
    0.38011943875730896947E-01
    0.34930266690981429806E-02
    0.34805921864658709297E-01
    0.43361040699873062282E-02
    0.44710786510132778659E-02
    0.67851145856371072873E-01
    0.68080675349433215221E-02
    0.44840273296649309220E-01
    0.83064447009332340044E-01
    0.69109495696282705057E-01
    0.83242055815519674922E-02
    0.50610834247683277043E-01
    0.20530019518020976854E-02
    0.25574311914193965933E-02
    0.22276371634280789889E-02
    0.31819082651259201350E-02
    0.35115107655509488274E-02
    0.19541530511541700156E-02
    0.21643634807391211317E-02
    0.27800886045769954147E-01
    0.72824403734338280514E-01
    0.36026839790605827939E-02
    0.59397674896738056338E-01
    0.55204274822586149596E-01
    0.29247281544577388365E-02
    0.43015277779814377335E-01
    0.67308521291219614024E-01
    0.80846137569841589054E-01
    0.73667417089773951089E-01
    0.78028806256764116078E-01
    0.81240420490243936413E-01
    0.80040399913100801488E-01
    0.69135479362758933686E-01
    0.16519101758340982902E-02
    0.15156179448860811892E-02
    0.17064626414709065105E-02
    0.21862771701950181602E-02
    0.18794863661388896969E-02
    0.15675160267759600564E-02
    0.15738808488558895995E-02
    0.76996136292424563474E-01
    0.10106919972771902239E+00
    0.10681894862019152004E+00
    0.92048805852187789989E-01
    0.11309790614108078399E+00
    0.79646447983582113750E-01
    0.61031103963388497191E-01
    0.74131542802157848748E-01
    0.86225255346862289541E-01
    0.63320657413910769185E-01
    0.75034583565889295675E-01
    0.92021494435816947322E-01
    0.75742485233654482935E-01
    0.86625727663834167780E-01
    0.88272702533055760754E-01
    0.86260995277949462090E-01
    0.25883283720731231625E-02
    0.39554223978232778969E-02
    0.26764189767393181847E-02
    0.35712049275606889791E-02
    0.40435149139800979912E-02
    0.61478224992004920635E-01
    0.86529783845364138806E-01
    0.74480701954851222246E-01
    0.65406355380729863658E-01
    0.78689634748194098313E-01
    0.20963828318615304602E-01
    0.56454794459041036936E-01
    0.10621830644751387163E+00
    0.44933547180362673479E-02
    0.72090363208478044910E-01
    0.85939869151798076174E-01
    0.57850140524937421205E-01
    0.69955708815102268794E-01
    0.55160041459621916848E-01
    0.66879818329549103884E-01
    0.50676589397481578217E-02
    0.80331058859540505068E-01
    0.45661573383268823367E-01
    0.36967947059873135229E-01
    0.71248822790520083270E-01
    0.95304807383942397037E-01
    0.88833420696280446238E-01
    0.10330410322475584717E+00
    0.94329968882271825192E-01
    0.99841392301861439651E-01
    0.26029918928121122471E-02
    0.43647354350271234946E-02
    0.30626648828925560376E-02
    0.29899945394016159798E-02
    0.37015921553910685789E-02
    0.16477674416771226785E-02
    0.18928995008536671045E-02
    0.21274153580453118370E-02
    0.15484536940520597301E-02
    0.20589121426903881328E-02
    0.10663748965043834405E+00
    0.91869593062214746637E-01
    0.91073368818502087318E-01
    0.90058311817923369924E-01
    0.85890923681401637468E-01
    0.72088730054020527804E-01
    0.68044957974490088981E-01
    0.70765243981353545544E-01
    0.68056633164030391758E-01
    0.67621282753463796134E-01
    0.81067064173278260975E-01
    0.68768249422669708304E-01
    0.68725832602298489449E-01
    0.67829849630567012886E-01
    0.81074558205266392119E-01
    0.30668443564923462269E-01
    0.13831799449168539692E-01
    0.76495044926624289339E-01
    0.51832523978277379381E-02
    0.57406898250445377585E-01
    0.15490321500332569684E-02
    0.17709853931661332076E-02
    0.23903273988028959050E-02
    0.26708981220923120638E-02
    0.23225177224723255257E-02
    0.23312336619019610219E-02
    0.31191732555166350183E-02
    0.62987568262152793253E-02
    0.50588752652981010260E-01
    0.63685526960545940645E-01
    0.72943313096108020055E-01
    0.61158195235419349212E-01
    0.10051616666586664361E+00
    0.10115730064283068312E+00
    0.86204995637491066418E-01
    0.98957929001295491522E-01
    0.89852570353367355871E-01
    0.54350287507510443991E-02
    0.80957730019786729864E-02
    0.90884997937438566362E-01
    0.79078949058521724735E-01
    0.29061920473329671231E-02
    0.17949222955203842159E-02
    0.17539797734182850566E-02
    0.48214647853254070931E-01
    0.22783794892523557239E-02
    0.20023556104535426836E-02
    0.62915952612752484852E-01
    0.67632254042421124929E-01
    0.68858219637355888576E-01
    0.61999244934699160314E-01
    0.63980012613058703796E-01
    0.69140341725928394778E-01
    0.42789321613080312165E-02
    0.34783575590060121160E-02
    0.22420533116772681237E-02
    0.83858365545007335085E-01
    0.10420740830424948808E+00
    0.93836202979666050172E-01
    0.23877682933025968018E-02
    0.20085236269224908227E-02
    0.17136012042570016468E-02
    0.19979833641381385297E-02
    0.16018293501797468883E-02
    0.15790739933759351775E-02
    0.83202000084680940994E-01
    0.10199059146387808028E+00
    0.95170909664178848786E-01
    0.84188566422212701701E-01
    0.84680678917703380848E-01
    0.62321550089417698803E-01
    0.64805962479423412370E-01
    0.73692266923825924807E-01
    0.42056102554635342583E-02
    0.92155269007787504743E-01
    0.45726567301358864159E-01
    0.84369776624725056902E-02
    0.89296564817801390990E-01
    0.88728252125934478634E-01
    0.88392380999754868731E-01
    0.76514808980257253967E-01
    0.73141981567847375034E-01
    0.19934599519401681282E-02
    0.31995679470213553817E-02
    0.20549209493254103932E-02
    0.21526682864456631386E-02
    0.77854187003006225520E-01
    0.79623036343566988560E-01
    0.15833240587059239056E-02
    0.15920257326060202867E-02
    0.62917286122554261230E-01
    0.51747710909704333279E-02
    0.50262389898657533135E-02
    0.93723133884463641352E-01
    0.26424029625165493945E-02
    0.67914408631146172546E-01
    0.11705251014085879535E+00
    0.25279877147385550022E-02
    0.90225472661322442258E-01
    0.87518172560998461207E-01
    0.69802389841985376662E-01
    0.11751435634068718716E+00
    0.59236243119090994935E-01
    0.27285417381612982711E-02
    0.30616106546950665884E-02
    0.77928760159321042167E-01
    0.55036199887926809393E-01
    0.81313010791672440947E-01
    0.43391767386004378992E-02
    0.87495506279823401230E-01
    0.64613575409518009263E-01
    0.59903850690654666944E-01
    0.44952807442011277414E-02
    0.14990275478953367372E-02
    0.82441908146060666109E-03
    0.14324858460388056880E-01
    0.11442425703553403896E-02
    0.27722058974510217257E-02
    0.30984396789442234660E-02
    0.61151067396977357160E-02
    0.47037108935547872895E-02
    0.20404658405592493615E-02
    0.57034561555912549613E-01
    0.54082936957886046381E-01
    0.60146760519452488469E-01
    0.69079072048822687258E-01
    0.59932860930027677393E-01
    0.54043412214350848577E-01
    0.33705113552746766847E-01
    0.47728129139655392499E-01
    0.57767121219214179195E-01
    0.13084986804650380887E-01
    0.70659832084070319392E-03
    0.94087844591256427837E-03
    0.17214140220313714057E-02
    0.18660510508230554808E-02
    0.10632662742487346101E-02
    0.77197229929108985083E-03
    0.87686201175183676234E-03
    0.12600980102863759951E-02
    0.21609106986000062300E-02
    0.42488162577431565561E-02
    0.52083442442609146142E-03
    0.37117343969043204528E-03
    0.34474492632584867327E-03
    0.47759693096235830917E-03
    0.67683040992396045418E-03
    0.14106876863402405958E-02
    0.30726643319025455023E-02
