# vtk DataFile Version 3.0
LAPLACIEN  2D
ASCII
DATASET UNSTRUCTURED_GRID
 POINTS         391  float
  0.50371505999999999       0.50367786999999997        0.0000000000000000     
  0.29013556000000001       0.29014535000000002        0.0000000000000000     
  0.70165584999999997       0.71206597999999999        0.0000000000000000     
  0.70304188999999995       0.30176619999999998        0.0000000000000000     
  0.30920671999999999       0.71149227999999998        0.0000000000000000     
  0.79044983999999996       0.49884783999999999        0.0000000000000000     
  0.49102621000000002       0.20968644000000000        0.0000000000000000     
  0.49912957000000002       0.77208717000000004        0.0000000000000000     
  0.21724072999999999       0.48989389000000000        0.0000000000000000     
  0.83255933999999998       0.83046598000000005        0.0000000000000000     
  0.16646774000000000       0.17015694000000001        0.0000000000000000     
  0.83054514999999995       0.16736480000000001        0.0000000000000000     
  0.16953130999999999       0.83265739000000005        0.0000000000000000     
  0.42166445000000002       0.36345201999999999        0.0000000000000000     
  0.64462200999999997       0.56347807999999999        0.0000000000000000     
  0.35324633999999999       0.56311191000000005        0.0000000000000000     
  0.65456411000000003       0.84856860999999995        0.0000000000000000     
  0.35141477999999998       0.15563974000000000        0.0000000000000000     
  0.15290967000000000       0.35206625000000003        0.0000000000000000     
  0.82942241000000005       0.34936866000000000        0.0000000000000000     
  0.84390527000000004       0.64441694999999999        0.0000000000000000     
  0.63699174999999997       0.14284276000000001        0.0000000000000000     
  0.15620682999999999       0.64648446999999998        0.0000000000000000     
  0.36426062999999997       0.85756310999999996        0.0000000000000000     
  0.63489340999999999       0.40519052000000000        0.0000000000000000     
  0.52518872999999999       0.65957078000000002        0.0000000000000000     
  0.32158959999999998       0.42298103999999997        0.0000000000000000     
  0.58861710000000000       0.31711036999999997        0.0000000000000000     
  0.42078418000000001       0.69497151999999995        0.0000000000000000     
  0.48608786999999998       0.89334152000000000        0.0000000000000000     
   9.7084320000000002E-002  0.50000000000000000        0.0000000000000000     
  0.90291568000000000       0.50000000000000000        0.0000000000000000     
  0.51392453000000005       0.10668648999999999        0.0000000000000000     
  0.59792566999999996       0.73122754000000001        0.0000000000000000     
  0.74510058999999995       0.41124730999999998        0.0000000000000000     
  0.73212551999999997       0.90191560000000004        0.0000000000000000     
   9.7784830000000003E-002  0.26957329000000002        0.0000000000000000     
  0.26711221000000002        9.8671499999999995E-002   0.0000000000000000     
  0.90191560000000004       0.26787448000000003        0.0000000000000000     
  0.90118569000000004       0.73039821000000005        0.0000000000000000     
  0.73122947000000005        9.8017859999999998E-002   0.0000000000000000     
   9.8084400000000002E-002  0.73212551999999997        0.0000000000000000     
  0.26957329000000002       0.90221516999999996        0.0000000000000000     
  0.39283522999999998       0.25360379000000000        0.0000000000000000     
  0.74480864000000002       0.60495284999999999        0.0000000000000000     
  0.25505132000000003       0.60593640999999998        0.0000000000000000     
  0.52159297999999998       0.40671636000000000        0.0000000000000000     
  0.40768852000000000       0.47699891000000000        0.0000000000000000     
   9.1467049999999994E-002   9.1876959999999994E-002   0.0000000000000000     
  0.90842484999999995       0.90819225000000003        0.0000000000000000     
  0.90820104999999995        9.1566729999999999E-002   0.0000000000000000     
   9.1807449999999999E-002  0.90843574000000005        0.0000000000000000     
  0.27098960000000000       0.20527094000000001        0.0000000000000000     
  0.73457293999999995       0.79835387000000002        0.0000000000000000     
  0.79817773000000003       0.25713470999999999        0.0000000000000000     
  0.20747797000000001       0.72863946000000002        0.0000000000000000     
  0.20175195000000001       0.27583914999999998        0.0000000000000000     
  0.79603889000000005       0.72159035000000005        0.0000000000000000     
  0.71761666000000002       0.19748431999999999        0.0000000000000000     
  0.28462607000000001       0.80251899999999998        0.0000000000000000     
  0.69134598999999997       0.49261972999999998        0.0000000000000000     
  0.44720578999999999       0.58582935999999997        0.0000000000000000     
  0.24242269999999999       0.37228174000000003        0.0000000000000000     
  0.38265623999999998       0.93072131999999996        0.0000000000000000     
  0.60971754000000000       0.91988369000000003        0.0000000000000000     
   7.9163609999999995E-002  0.60979116000000000        0.0000000000000000     
  0.92010649000000000       0.61081183999999999        0.0000000000000000     
  0.61954008999999999        7.1530830000000004E-002   0.0000000000000000     
  0.91882012999999996       0.38917363999999999        0.0000000000000000     
  0.39086346000000000        8.0652249999999995E-002   0.0000000000000000     
   7.9183480000000001E-002  0.38966213000000000        0.0000000000000000     
  0.59114111999999996       0.49294315000000000        0.0000000000000000     
  0.63337980999999999       0.64485914000000000        0.0000000000000000     
  0.50012352000000004       0.29676539000000002        0.0000000000000000     
  0.82552601000000003       0.92753492000000004        0.0000000000000000     
  0.92774772999999999       0.82498556999999995        0.0000000000000000     
   7.1970870000000006E-002  0.17510291000000000        0.0000000000000000     
  0.17422821999999999        7.2635640000000001E-002   0.0000000000000000     
  0.82510813000000005        7.2134840000000006E-002   0.0000000000000000     
  0.92754665000000003       0.17446275999999999        0.0000000000000000     
  0.17501022999999999       0.92789951999999998        0.0000000000000000     
   7.2464680000000004E-002  0.82554053000000005        0.0000000000000000     
  0.30731587999999999       0.50885354999999999        0.0000000000000000     
  0.59033407999999998       0.22171178999999999        0.0000000000000000     
  0.40109191999999999       0.78725542000000004        0.0000000000000000     
  0.35420917000000002       0.63754104000000000        0.0000000000000000     
  0.15983976999999999       0.56665573000000002        0.0000000000000000     
  0.84108459999999996       0.56757886999999996        0.0000000000000000     
  0.83902096000000004       0.43344338999999998        0.0000000000000000     
  0.43230028999999998       0.16004268999999999        0.0000000000000000     
  0.57536027999999995       0.83041363999999995        0.0000000000000000     
  0.15771898000000001       0.42747892999999998        0.0000000000000000     
  0.34021692999999997       0.34221559000000001        0.0000000000000000     
  0.56002271999999997       0.57501117999999996        0.0000000000000000     
  0.65344329000000001       0.78147597999999996        0.0000000000000000     
   0.0000000000000000        0.0000000000000000        0.0000000000000000     
   1.0000000000000000        0.0000000000000000        0.0000000000000000     
   1.0000000000000000        1.0000000000000000        0.0000000000000000     
   0.0000000000000000        1.0000000000000000        0.0000000000000000     
  0.11111111000000000        0.0000000000000000        0.0000000000000000     
  0.22222222000000000        0.0000000000000000        0.0000000000000000     
  0.33333332999999998        0.0000000000000000        0.0000000000000000     
  0.44444444000000000        0.0000000000000000        0.0000000000000000     
  0.55555555999999995        0.0000000000000000        0.0000000000000000     
  0.66666667000000002        0.0000000000000000        0.0000000000000000     
  0.77777777999999997        0.0000000000000000        0.0000000000000000     
  0.88888889000000004        0.0000000000000000        0.0000000000000000     
   1.0000000000000000       0.11111111000000000        0.0000000000000000     
   1.0000000000000000       0.22222222000000000        0.0000000000000000     
   1.0000000000000000       0.33333332999999998        0.0000000000000000     
   1.0000000000000000       0.44444444000000000        0.0000000000000000     
   1.0000000000000000       0.55555555999999995        0.0000000000000000     
   1.0000000000000000       0.66666667000000002        0.0000000000000000     
   1.0000000000000000       0.77777777999999997        0.0000000000000000     
   1.0000000000000000       0.88888889000000004        0.0000000000000000     
  0.88888889000000004        1.0000000000000000        0.0000000000000000     
  0.77777777999999997        1.0000000000000000        0.0000000000000000     
  0.66666667000000002        1.0000000000000000        0.0000000000000000     
  0.55555555999999995        1.0000000000000000        0.0000000000000000     
  0.44444444000000000        1.0000000000000000        0.0000000000000000     
  0.33333332999999998        1.0000000000000000        0.0000000000000000     
  0.22222222000000000        1.0000000000000000        0.0000000000000000     
  0.11111111000000000        1.0000000000000000        0.0000000000000000     
   0.0000000000000000       0.11111111000000000        0.0000000000000000     
   0.0000000000000000       0.22222222000000000        0.0000000000000000     
[...]
 CELL_DATA         354
 SCALARS U float
 LOOKUP_TABLE default
    0.63430828017336154945E-01
    0.12348148093459387908E+00
    0.12592570358801938313E+00
    0.25175829688741913071E+00
    0.78683561002204319146E-01
    0.10926670159650950231E+00
    0.19584958394520241010E+00
    0.11466772830468083266E+00
    0.36557269793630636778E+00
    0.43720994228205806165E+00
    0.56692706930342418037E+00
    0.52201027903087682258E+00
    0.62148705797709946630E+00
    0.63973194784992104545E+00
    0.59975399559756836787E+00
    0.62195711589129176744E+00
    0.48041917981468751364E+00
    0.37973438667540315716E+00
    0.22087917535855161599E+00
    0.28445888540682462420E+00
    0.13073710736107335695E+00
    0.13249683965821326681E+00
    0.20684240904755263335E+00
    0.16937900604414138361E+00
    0.22200612710256839577E+00
    0.21368996983086971375E+00
    0.18269575027621862140E+00
    0.20028013607433800547E+00
    0.13374014518790933170E+00
    0.95124395130951513999E-01
    0.64758674837130172919E-01
    0.91287416478730787350E-01
    0.76230467646435276508E-01
    0.59423656807612204589E-01
    0.85157456111776941299E-01
    0.78342292184668468891E-01
    0.10999722985774240680E+00
    0.79447233592715438277E-01
    0.57191261535406760774E-01
    0.58471790493080384732E-01
    0.43019584769230304055E-01
    0.47230320521841069603E-01
    0.45020622754223901807E-01
    0.46404299132172782683E-01
    0.51386312449104111499E-01
    0.38889842611312154530E-01
    0.56106166375959158621E-01
    0.46582136912327064271E-01
    0.83740152834831160789E-01
    0.13274914041385199592E+00
    0.19961055590944007387E+00
    0.14737931051805638893E+00
    0.56645164006902198883E-01
    0.40660653672711551121E-01
    0.56403416019160816652E-01
    0.38235369129057027171E-01
    0.54731555728248143522E-01
    0.54118038272212815043E-01
    0.57221260417004427001E-01
    0.55031832497631834322E-01
    0.59841314872689135851E-01
    0.49570569992092007594E-01
    0.44218490297262519340E-01
    0.53465090172574558647E-01
    0.72699478482479235053E-01
    0.90831215042373056323E-01
    0.11856313549151366316E+00
    0.10726162622273206770E+00
    0.78199129592295890667E+00
    0.81575771945715824796E+00
    0.81937618205543327754E+00
    0.80427380801485237605E+00
    0.81544014148479260218E+00
    0.76572966565874911460E+00
    0.76396987633860113931E+00
    0.78647763528812553169E+00
    0.77876965423426469659E+00
    0.80059735518171826207E+00
    0.56161343379902106676E+00
    0.69455774487483756818E+00
    0.36358357881860048355E+00
    0.48210465891365061886E+00
    0.74403986181561154734E+00
    0.40146515608142030462E+00
    0.74826243026201089137E+00
    0.39981519997921793896E+00
    0.15008904915029300242E+00
    0.64467107569302051218E+00
    0.71731204153345273777E+00
    0.50884313908794442938E+00
    0.27542469294993227047E+00
    0.50835908331705248475E+00
    0.54995129744066495459E+00
    0.26735244643066657932E+00
    0.16722745475091010947E+00
    0.23564805170620511943E+00
    0.69651526038650435346E+00
    0.74453405305207431830E+00
    0.78566474680850462153E+00
    0.78623535179813874851E+00
    0.80866688714727785747E+00
    0.75631784870771290308E+00
    0.78042064255352761037E+00
    0.60312885101719371228E+00
    0.59540191662044472665E+00
    0.32451581250037364601E+00
    0.34159352349549693129E+00
    0.77407461658065135346E+00
    0.68309906104263484750E+00
    0.55831561091833958876E+00
    0.16636739823171517449E+00
    0.44612916591841544900E+00
    0.26724725817583427911E+00
    0.23371994155905931323E+00
    0.76720725063628070206E+00
    0.32699968605792001375E+00
    0.62330247499986635162E+00
    0.72691510646539181373E+00
    0.76187880014144371277E+00
    0.34889343283548523988E+00
    0.57625090239525134095E+00
    0.86512319359474842972E-01
    0.11314847762100485595E+00
    0.95287567761580260761E-01
    0.14690708837521301855E+00
    0.16403009349996464095E+00
    0.83087641811410414827E-01
    0.92915883720985553706E-01
    0.22556792138797571168E+00
    0.58778824051608058454E+00
    0.15948213054882259820E+00
    0.73493672062543824453E+00
    0.55454301124144866897E+00
    0.13760161224801190083E+00
    0.29039941290758597425E+00
    0.76900134991713087196E+00
    0.79692258695211415365E+00
    0.62131174828009172462E+00
    0.81329376952728771322E+00
    0.78535781839864082787E+00
    0.76495941825280522330E+00
    0.61551904959824832453E+00
    0.67767336354366880524E-01
    0.61128989978087522328E-01
    0.68749622339709839935E-01
    0.94696944677122335543E-01
    0.77495639373132668704E-01
    0.63144185067332270211E-01
    0.63465237834671478501E-01
    0.78173690393606576343E+00
    0.77387837279783078248E+00
    0.53217705604985132695E+00
    0.76452246640058785232E+00
    0.50030614990482924487E+00
    0.78713416784938450288E+00
    0.79839200366541362985E+00
    0.81568660746767840397E+00
    0.79603960581623101067E+00
    0.81548492379350034920E+00
    0.79000240944710653501E+00
    0.74094299012488029632E+00
    0.71902310087976883946E+00
    0.77707254066851216834E+00
    0.71890934084457258635E+00
    0.77365549647056086613E+00
    0.11471385484049628767E+00
    0.19975439080296808481E+00
    0.11990611328801695223E+00
    0.16850957008016842487E+00
    0.19940866369089932375E+00
    0.79444389361178013864E+00
    0.79756215018300458119E+00
    0.80188132299818792870E+00
    0.80809788584552799673E+00
    0.80752561712490855683E+00
    0.27126399258823480354E+00
    0.59664630234373405848E+00
    0.59860488336472017501E+00
    0.22058979658824426351E+00
    0.38678195978911178443E+00
    0.80974553833003404257E+00
    0.77980488642479972583E+00
    0.80977245575721601423E+00
    0.76504496597935744973E+00
    0.80567699934092118497E+00
    0.28537464542107260357E+00
    0.63380672250901326503E+00
    0.39243772797802589647E+00
    0.45488822885815577424E+00
    0.67021202725030926128E+00
    0.80989537240501485726E+00
    0.79537101722869030240E+00
    0.75225329241167793182E+00
    0.83419501055912403942E+00
    0.69176062503404867066E+00
    0.11363073557831890326E+00
    0.21294554159798470550E+00
    0.13998372838810330121E+00
    0.13465490698666326974E+00
    0.17400469242630670075E+00
    0.68399609231265298681E-01
    0.73954478209633328634E-01
    0.87464200665687441560E-01
    0.60275520165453476407E-01
    0.88945595717545997139E-01
    0.18035205763131928469E+00
    0.67098401485403569300E+00
    0.44480402613894709507E+00
    0.76425881395759531767E+00
    0.67896982993950405483E+00
    0.74797856782426164202E+00
    0.68061064578975427608E+00
    0.78918942597138719286E+00
    0.79411236873799373459E+00
    0.80176476437964594446E+00
    0.80229550481535283346E+00
    0.78018558113061020620E+00
    0.79052878875069187981E+00
    0.76667187087807919799E+00
    0.16953214274394071137E+00
    0.12736674820017887533E+00
    0.13863041657951838403E+00
    0.70436852404488914381E+00
    0.34562950200028530467E+00
    0.66416249221729095620E+00
    0.63606836326085436362E-01
    0.76117980366550139215E-01
    0.10471532839100608503E+00
    0.12083546479636636528E+00
    0.10394433923891997773E+00
    0.10877784426240498517E+00
    0.13987060870369036336E+00
    0.29096930264233084040E+00
    0.35187353883960631462E+00
    0.52736224492177730117E+00
    0.62235111702826806379E+00
    0.74184536545863821733E+00
    0.83075438547203916961E+00
    0.77634872789582654029E+00
    0.54516620878829868957E+00
    0.79206231278665972795E+00
    0.73486744926725833249E+00
    0.30124952345511735174E+00
    0.38344715771079740385E+00
    0.80969195792893533525E+00
    0.79074926463435535329E+00
    0.13209397205173051271E+00
    0.74841660697079342990E-01
    0.72465363762768200684E-01
    0.38011954629293409624E+00
    0.10553106890081064007E+00
    0.87861779408437715166E-01
    0.78782764040334485323E+00
    0.72870829316507301776E+00
    0.33677646461152249691E+00
    0.80160513547439848914E+00
    0.57459092290182334217E+00
    0.51463513813110794981E+00
    0.20329954513129569471E+00
    0.20352045230684667754E+00
    0.10062731554250699262E+00
    0.78508829016533177025E+00
    0.81094256680535781179E+00
    0.70169635757558612710E+00
    0.10412390616518496511E+00
    0.84818505472679189827E-01
    0.70981095286895279362E-01
    0.82890344872989532576E-01
    0.62356494198559687947E-01
    0.63516247684253054895E-01
    0.75969627915827286913E+00
    0.51217320033238589172E+00
    0.79328239501223829500E+00
    0.80787184764263675341E+00
    0.58012167533949110521E+00
    0.79246762701698436615E+00
    0.80201943118649476894E+00
    0.74445768681574375769E+00
    0.27938735155411215105E+00
    0.74927341821753878914E+00
    0.73956242946937578164E+00
    0.34187279877841109110E+00
    0.72350967901188911746E+00
    0.68485444917650828422E+00
    0.27992492283114001062E+00
    0.79674737340368806393E+00
    0.72979665151492389974E+00
    0.86928308120606534448E-01
    0.13668740722015154665E+00
    0.85810293525646771928E-01
    0.90540510363624648882E-01
    0.55198332775623548674E+00
    0.35205581963127197120E+00
    0.62810317577540991651E-01
    0.63145866158829888626E-01
    0.78171585859016556874E+00
    0.27531305482470846968E+00
    0.29308410728847000826E+00
    0.75849353898203153435E+00
    0.11517807961471271394E+00
    0.75832209586040155713E+00
    0.48575368862137796588E+00
    0.11050049475434484125E+00
    0.79583660023688795881E+00
    0.72061672881695992832E+00
    0.81083436523277796493E+00
    0.57177010573843811692E+00
    0.77613489472736452157E+00
    0.12451502237738108769E+00
    0.13875811159626177949E+00
    0.54776503223090378114E+00
    0.75312512592330282946E+00
    0.79978814758103733418E+00
    0.20981840938633997129E+00
    0.78322839808618671675E+00
    0.81351533660191877040E+00
    0.23170540294521754787E+00
    0.24529210651988153646E+00
    0.57961253614737084927E-01
    0.27458896463762986345E-01
    0.72906238178672075345E-01
    0.37280480781823971403E-01
    0.12502349990522915180E+00
    0.14773732542279521818E+00
    0.31621151922803120149E+00
    0.22976766777180057666E+00
    0.79616997344825468641E-01
    0.10261702173169943986E+00
    0.23074410576475568035E+00
    0.39914582802467113432E+00
    0.41031625431166651730E+00
    0.31874887182669542351E+00
    0.16436244635443245099E+00
    0.39704282345107380636E-01
    0.38297448865005578877E-01
    0.31425520287699092170E-01
    0.25931863414692592207E-01
    0.19836575451161166106E-01
    0.31650692246249285955E-01
    0.68932413348284496402E-01
    0.77876868799911527774E-01
    0.38794599024752698946E-01
    0.24486716662221449936E-01
    0.29920976918305343395E-01
    0.47486736378630739486E-01
    0.95445167621390797352E-01
    0.21016638120528394196E+00
    0.14131417110765574080E-01
    0.87871991728978790515E-02
    0.78530542392177306310E-02
    0.12633801632700225603E-01
    0.20396560297964473618E-01
    0.57022093285826816467E-01
    0.14502626068875157372E+00
