# vtk DataFile Version 3.0
LAPLACIEN  2D
ASCII
DATASET UNSTRUCTURED_GRID
 POINTS         391  float
  0.50371505999999999       0.50367786999999997        0.0000000000000000     
  0.29013556000000001       0.29014535000000002        0.0000000000000000     
  0.70165584999999997       0.71206597999999999        0.0000000000000000     
  0.70304188999999995       0.30176619999999998        0.0000000000000000     
  0.30920671999999999       0.71149227999999998        0.0000000000000000     
  0.79044983999999996       0.49884783999999999        0.0000000000000000     
  0.49102621000000002       0.20968644000000000        0.0000000000000000     
  0.49912957000000002       0.77208717000000004        0.0000000000000000     
  0.21724072999999999       0.48989389000000000        0.0000000000000000     
  0.83255933999999998       0.83046598000000005        0.0000000000000000     
  0.16646774000000000       0.17015694000000001        0.0000000000000000     
  0.83054514999999995       0.16736480000000001        0.0000000000000000     
  0.16953130999999999       0.83265739000000005        0.0000000000000000     
  0.42166445000000002       0.36345201999999999        0.0000000000000000     
  0.64462200999999997       0.56347807999999999        0.0000000000000000     
  0.35324633999999999       0.56311191000000005        0.0000000000000000     
  0.65456411000000003       0.84856860999999995        0.0000000000000000     
  0.35141477999999998       0.15563974000000000        0.0000000000000000     
  0.15290967000000000       0.35206625000000003        0.0000000000000000     
  0.82942241000000005       0.34936866000000000        0.0000000000000000     
  0.84390527000000004       0.64441694999999999        0.0000000000000000     
  0.63699174999999997       0.14284276000000001        0.0000000000000000     
  0.15620682999999999       0.64648446999999998        0.0000000000000000     
  0.36426062999999997       0.85756310999999996        0.0000000000000000     
  0.63489340999999999       0.40519052000000000        0.0000000000000000     
  0.52518872999999999       0.65957078000000002        0.0000000000000000     
  0.32158959999999998       0.42298103999999997        0.0000000000000000     
  0.58861710000000000       0.31711036999999997        0.0000000000000000     
  0.42078418000000001       0.69497151999999995        0.0000000000000000     
  0.48608786999999998       0.89334152000000000        0.0000000000000000     
   9.7084320000000002E-002  0.50000000000000000        0.0000000000000000     
  0.90291568000000000       0.50000000000000000        0.0000000000000000     
  0.51392453000000005       0.10668648999999999        0.0000000000000000     
  0.59792566999999996       0.73122754000000001        0.0000000000000000     
  0.74510058999999995       0.41124730999999998        0.0000000000000000     
  0.73212551999999997       0.90191560000000004        0.0000000000000000     
   9.7784830000000003E-002  0.26957329000000002        0.0000000000000000     
  0.26711221000000002        9.8671499999999995E-002   0.0000000000000000     
  0.90191560000000004       0.26787448000000003        0.0000000000000000     
  0.90118569000000004       0.73039821000000005        0.0000000000000000     
  0.73122947000000005        9.8017859999999998E-002   0.0000000000000000     
   9.8084400000000002E-002  0.73212551999999997        0.0000000000000000     
  0.26957329000000002       0.90221516999999996        0.0000000000000000     
  0.39283522999999998       0.25360379000000000        0.0000000000000000     
  0.74480864000000002       0.60495284999999999        0.0000000000000000     
  0.25505132000000003       0.60593640999999998        0.0000000000000000     
  0.52159297999999998       0.40671636000000000        0.0000000000000000     
  0.40768852000000000       0.47699891000000000        0.0000000000000000     
   9.1467049999999994E-002   9.1876959999999994E-002   0.0000000000000000     
  0.90842484999999995       0.90819225000000003        0.0000000000000000     
  0.90820104999999995        9.1566729999999999E-002   0.0000000000000000     
   9.1807449999999999E-002  0.90843574000000005        0.0000000000000000     
  0.27098960000000000       0.20527094000000001        0.0000000000000000     
  0.73457293999999995       0.79835387000000002        0.0000000000000000     
  0.79817773000000003       0.25713470999999999        0.0000000000000000     
  0.20747797000000001       0.72863946000000002        0.0000000000000000     
  0.20175195000000001       0.27583914999999998        0.0000000000000000     
  0.79603889000000005       0.72159035000000005        0.0000000000000000     
  0.71761666000000002       0.19748431999999999        0.0000000000000000     
  0.28462607000000001       0.80251899999999998        0.0000000000000000     
  0.69134598999999997       0.49261972999999998        0.0000000000000000     
  0.44720578999999999       0.58582935999999997        0.0000000000000000     
  0.24242269999999999       0.37228174000000003        0.0000000000000000     
  0.38265623999999998       0.93072131999999996        0.0000000000000000     
  0.60971754000000000       0.91988369000000003        0.0000000000000000     
   7.9163609999999995E-002  0.60979116000000000        0.0000000000000000     
  0.92010649000000000       0.61081183999999999        0.0000000000000000     
  0.61954008999999999        7.1530830000000004E-002   0.0000000000000000     
  0.91882012999999996       0.38917363999999999        0.0000000000000000     
  0.39086346000000000        8.0652249999999995E-002   0.0000000000000000     
   7.9183480000000001E-002  0.38966213000000000        0.0000000000000000     
  0.59114111999999996       0.49294315000000000        0.0000000000000000     
  0.63337980999999999       0.64485914000000000        0.0000000000000000     
  0.50012352000000004       0.29676539000000002        0.0000000000000000     
  0.82552601000000003       0.92753492000000004        0.0000000000000000     
  0.92774772999999999       0.82498556999999995        0.0000000000000000     
   7.1970870000000006E-002  0.17510291000000000        0.0000000000000000     
  0.17422821999999999        7.2635640000000001E-002   0.0000000000000000     
  0.82510813000000005        7.2134840000000006E-002   0.0000000000000000     
  0.92754665000000003       0.17446275999999999        0.0000000000000000     
  0.17501022999999999       0.92789951999999998        0.0000000000000000     
   7.2464680000000004E-002  0.82554053000000005        0.0000000000000000     
  0.30731587999999999       0.50885354999999999        0.0000000000000000     
  0.59033407999999998       0.22171178999999999        0.0000000000000000     
  0.40109191999999999       0.78725542000000004        0.0000000000000000     
  0.35420917000000002       0.63754104000000000        0.0000000000000000     
  0.15983976999999999       0.56665573000000002        0.0000000000000000     
  0.84108459999999996       0.56757886999999996        0.0000000000000000     
  0.83902096000000004       0.43344338999999998        0.0000000000000000     
  0.43230028999999998       0.16004268999999999        0.0000000000000000     
  0.57536027999999995       0.83041363999999995        0.0000000000000000     
  0.15771898000000001       0.42747892999999998        0.0000000000000000     
  0.34021692999999997       0.34221559000000001        0.0000000000000000     
  0.56002271999999997       0.57501117999999996        0.0000000000000000     
  0.65344329000000001       0.78147597999999996        0.0000000000000000     
   0.0000000000000000        0.0000000000000000        0.0000000000000000     
   1.0000000000000000        0.0000000000000000        0.0000000000000000     
   1.0000000000000000        1.0000000000000000        0.0000000000000000     
   0.0000000000000000        1.0000000000000000        0.0000000000000000     
  0.11111111000000000        0.0000000000000000        0.0000000000000000     
  0.22222222000000000        0.0000000000000000        0.0000000000000000     
  0.33333332999999998        0.0000000000000000        0.0000000000000000     
  0.44444444000000000        0.0000000000000000        0.0000000000000000     
  0.55555555999999995        0.0000000000000000        0.0000000000000000     
  0.66666667000000002        0.0000000000000000        0.0000000000000000     
  0.77777777999999997        0.0000000000000000        0.0000000000000000     
  0.88888889000000004        0.0000000000000000        0.0000000000000000     
   1.0000000000000000       0.11111111000000000        0.0000000000000000     
   1.0000000000000000       0.22222222000000000        0.0000000000000000     
   1.0000000000000000       0.33333332999999998        0.0000000000000000     
   1.0000000000000000       0.44444444000000000        0.0000000000000000     
   1.0000000000000000       0.55555555999999995        0.0000000000000000     
   1.0000000000000000       0.66666667000000002        0.0000000000000000     
   1.0000000000000000       0.77777777999999997        0.0000000000000000     
   1.0000000000000000       0.88888889000000004        0.0000000000000000     
  0.88888889000000004        1.0000000000000000        0.0000000000000000     
  0.77777777999999997        1.0000000000000000        0.0000000000000000     
  0.66666667000000002        1.0000000000000000        0.0000000000000000     
  0.55555555999999995        1.0000000000000000        0.0000000000000000     
  0.44444444000000000        1.0000000000000000        0.0000000000000000     
  0.33333332999999998        1.0000000000000000        0.0000000000000000     
  0.22222222000000000        1.0000000000000000        0.0000000000000000     
  0.11111111000000000        1.0000000000000000        0.0000000000000000     
   0.0000000000000000       0.11111111000000000        0.0000000000000000     
   0.0000000000000000       0.22222222000000000        0.0000000000000000     
[...]
 CELL_DATA         354
 SCALARS U float
 LOOKUP_TABLE default
    0.68889499653193714268E-01
    0.12911417636347718996E+00
    0.13075357119407216011E+00
    0.25115443502684259292E+00
    0.86134781655627809527E-01
    0.11735853135930671143E+00
    0.20376086939929063946E+00
    0.12486167991795796284E+00
    0.37339126147966911207E+00
    0.44340466934476641114E+00
    0.57019551318780514748E+00
    0.52405683956098059184E+00
    0.62302006222006123259E+00
    0.63960801326771532516E+00
    0.59997643401369626925E+00
    0.62351469619057198202E+00
    0.48419838052473251899E+00
    0.38680157473265608381E+00
    0.23618070091882722994E+00
    0.29827719562560328637E+00
    0.13944012170522773753E+00
    0.14189064983128038544E+00
    0.21286068455526555021E+00
    0.17785309494127982122E+00
    0.22893510583584655849E+00
    0.22176223381242801680E+00
    0.19129030362165586054E+00
    0.20866483315804335019E+00
    0.13892696677219371071E+00
    0.10221947542348373827E+00
    0.69806672356639676291E-01
    0.97067414646704833214E-01
    0.82281770389243225061E-01
    0.65180634952039087637E-01
    0.91427707226606536040E-01
    0.84323501382520579805E-01
    0.11582023503690452859E+00
    0.85426746360993344176E-01
    0.62891990221312629727E-01
    0.64673142342832154461E-01
    0.47387346531668379790E-01
    0.52034312405207318319E-01
    0.49374701061627321308E-01
    0.51091657773023643752E-01
    0.56569805877730194865E-01
    0.44057933338142028779E-01
    0.61716818958569057141E-01
    0.51822874584639855300E-01
    0.89067382515482337868E-01
    0.13678257967419271690E+00
    0.19946006575149005657E+00
    0.14966854493249531766E+00
    0.61639649968214423048E-01
    0.46361347459587247399E-01
    0.61523796430618858666E-01
    0.43452326998330292884E-01
    0.59417488339325391644E-01
    0.59308796403768959671E-01
    0.61657436908228765993E-01
    0.60426701484066827619E-01
    0.64764432389842183091E-01
    0.54293202179575880684E-01
    0.48457070457760008375E-01
    0.58502762638029531805E-01
    0.77855148419911632263E-01
    0.96663318946154930256E-01
    0.12303682836851337346E+00
    0.11140241033204299759E+00
    0.78140262662548676253E+00
    0.81016927091564872043E+00
    0.81305426666239521971E+00
    0.79868079447600193177E+00
    0.80837016630289659780E+00
    0.75913559875977643099E+00
    0.75571049411238089277E+00
    0.77989712591851056978E+00
    0.77177238369272527230E+00
    0.79368790750248419119E+00
    0.53897697990949700042E+00
    0.68354995928246653492E+00
    0.38118785893375184415E+00
    0.48201724860959821450E+00
    0.73348622170887967098E+00
    0.39572180615076529842E+00
    0.74805795092320481743E+00
    0.42615592304340865759E+00
    0.16351453555095610271E+00
    0.66175547779780730107E+00
    0.72601266202995318189E+00
    0.52870039975574800728E+00
    0.29564922537222382282E+00
    0.52173537637691291824E+00
    0.55272185901553749776E+00
    0.27667524687070721434E+00
    0.17601223108565255959E+00
    0.25328678354061900935E+00
    0.69616621689239366333E+00
    0.73985075233556041319E+00
    0.77872146279629972376E+00
    0.77808169561916074031E+00
    0.80232947285857159070E+00
    0.74686831280373677799E+00
    0.77307730294726728637E+00
    0.61522126165871049430E+00
    0.60805667657898687661E+00
    0.34246296880056065204E+00
    0.35856984673952124743E+00
    0.78122637769226210835E+00
    0.67687390009000669711E+00
    0.55677682594995048238E+00
    0.17787438953752796045E+00
    0.44901965820912626004E+00
    0.27777066792087712344E+00
    0.24323640147288883018E+00
    0.76009305126304038680E+00
    0.34417637042874227316E+00
    0.62093762095819604596E+00
    0.71372829201566667656E+00
    0.75384677940937139251E+00
    0.35503493294625665389E+00
    0.57701874065015112958E+00
    0.93472266242339133169E-01
    0.12125524927996542135E+00
    0.10192720470383999365E+00
    0.15645715948004448870E+00
    0.17336045036508263006E+00
    0.89084130303322683897E-01
    0.99748535766611662323E-01
    0.23856267027199509756E+00
    0.59364572778397628472E+00
    0.16863131973303321920E+00
    0.73470950794932754491E+00
    0.56274045112757975495E+00
    0.14440766025638077097E+00
    0.30365858151803515330E+00
    0.76618073699583222336E+00
    0.78967106923962682163E+00
    0.62676990946324828702E+00
    0.80738838975301030487E+00
    0.77967219266037879333E+00
    0.75919130520926625394E+00
    0.62230990007428677036E+00
    0.73246925649709665462E-01
    0.66194601484357296073E-01
    0.74970654605658951231E-01
    0.10118577996774918981E+00
    0.84137110617342261709E-01
    0.68681973272119764551E-01
    0.69002409212544857375E-01
    0.77633347833661259241E+00
    0.77627070346364290820E+00
    0.54679100662522672760E+00
    0.76663391838503380793E+00
    0.51823433786659189870E+00
    0.78270755905275879449E+00
    0.79138979577698964629E+00
    0.80942963730054628968E+00
    0.78992258139451243526E+00
    0.80775915259344810426E+00
    0.78173827466403833508E+00
    0.73633177604297450625E+00
    0.70780667793420137812E+00
    0.76687928645891678681E+00
    0.70848173777916512162E+00
    0.76412470005338239964E+00
    0.12399719839400555332E+00
    0.22170031926320094007E+00
    0.13060597331613346683E+00
    0.18154638539994297219E+00
    0.22239276481421207943E+00
    0.78991828567114241721E+00
    0.79154088265906685784E+00
    0.79364491211913112956E+00
    0.80231234504572346289E+00
    0.80077727421533462238E+00
    0.28603560925050841579E+00
    0.60100274998551661554E+00
    0.59197993085058409068E+00
    0.24330862754260546010E+00
    0.40318215618780278708E+00
    0.80385662021132975319E+00
    0.77852855636267526140E+00
    0.80323048560087872971E+00
    0.76412159493506381924E+00
    0.79824896665706435162E+00
    0.30957077437410168708E+00
    0.62471850100503856229E+00
    0.40048224355357775472E+00
    0.47010814244369492076E+00
    0.66471944109562086656E+00
    0.80886139097307629964E+00
    0.78800678143471247772E+00
    0.75814327605492515261E+00
    0.82794727574047355390E+00
    0.70763058143853008186E+00
    0.12273899654837078232E+00
    0.22153714956846082274E+00
    0.14921608391123375448E+00
    0.14845657741619616710E+00
    0.18928238287028459341E+00
    0.74729995998334880491E-01
    0.82680088512232755016E-01
    0.96920477416707326301E-01
    0.67307985980763276879E-01
    0.97150326651206458939E-01
    0.19741144536850213642E+00
    0.68772292757761910309E+00
    0.47086989707062643085E+00
    0.76339131911965740773E+00
    0.69318593931702365829E+00
    0.73974264134226241918E+00
    0.67414016495111073191E+00
    0.78080355262490253043E+00
    0.78467740071604896723E+00
    0.79377157878600734797E+00
    0.79640701200812902272E+00
    0.77414095028564999801E+00
    0.78150494898584899062E+00
    0.75978695389800510185E+00
    0.18443706151726424469E+00
    0.14245752558943020061E+00
    0.15231550342371624751E+00
    0.68911441641427206850E+00
    0.36101299013400334204E+00
    0.65205718893137665226E+00
    0.69769391478006287377E-01
    0.82451259213755942468E-01
    0.11619206934593459546E+00
    0.12940243414127672317E+00
    0.11299816452558553159E+00
    0.11885315466740603574E+00
    0.15223331056670585948E+00
    0.30807710115932734896E+00
    0.36126659212947370703E+00
    0.53743562108176656800E+00
    0.62159777119329451267E+00
    0.74288145145649608914E+00
    0.82643451188487238035E+00
    0.77189011935055873437E+00
    0.56112279186382252316E+00
    0.79201421759140511192E+00
    0.72326719269450068239E+00
    0.32038881187806655948E+00
    0.38188395368875815983E+00
    0.80429699410549071459E+00
    0.78385653475529848411E+00
    0.14103219009895240355E+00
    0.81770350932629548568E-01
    0.78842701389695873937E-01
    0.39884047720221960098E+00
    0.11482188374866592051E+00
    0.96434255738099383670E-01
    0.78263559774006696834E+00
    0.72913434032367652193E+00
    0.34751421826683959182E+00
    0.79831690570291335973E+00
    0.58208283281040951174E+00
    0.52017713227726103398E+00
    0.21955979936461134105E+00
    0.22246499212468578976E+00
    0.10732931342664508989E+00
    0.77964577000613011215E+00
    0.80386633949607522176E+00
    0.69943770797188475896E+00
    0.11190569436010672222E+00
    0.92796809470639937678E-01
    0.76526615735369368787E-01
    0.90588042487071959719E-01
    0.69089967903852383957E-01
    0.68970722886735849610E-01
    0.75182826949610248590E+00
    0.53204383037785607513E+00
    0.79457781799579052517E+00
    0.80377294147443223427E+00
    0.56920126840904872179E+00
    0.78561242372234030285E+00
    0.79472881526207583835E+00
    0.73471866667834972997E+00
    0.28645032735433584303E+00
    0.74448969098754469442E+00
    0.73426521725347881908E+00
    0.34898568580751743173E+00
    0.72955376995081200331E+00
    0.69963759676487180528E+00
    0.29861809408806577748E+00
    0.78955752240387599983E+00
    0.71928265580323680339E+00
    0.95629944957008120032E-01
    0.14730337152698730341E+00
    0.91933683440355726257E-01
    0.97244354100006341612E-01
    0.56086962032826437330E+00
    0.36757908994483506904E+00
    0.68188931264045599123E-01
    0.68491373573306979505E-01
    0.77763153043370447648E+00
    0.28862425598115815095E+00
    0.32036224514430278187E+00
    0.76200012056022270457E+00
    0.12455269991925962958E+00
    0.74963794855247212201E+00
    0.50951844802660584133E+00
    0.12061242990440133871E+00
    0.79011151060983608740E+00
    0.70203748660785814106E+00
    0.80309182098116027593E+00
    0.56000895336325673401E+00
    0.76948662073026663499E+00
    0.13408576896618107366E+00
    0.15238276099720801660E+00
    0.55313376562563210115E+00
    0.75250682662758783259E+00
    0.79361243027177952314E+00
    0.23426050152241151281E+00
    0.77606716512894557969E+00
    0.80526365617549333642E+00
    0.24791891069750049414E+00
    0.26666714087549614476E+00
    0.64943418474328357126E-01
    0.32135464373521022141E-01
    0.82338283714907409272E-01
    0.44208179024382940336E-01
    0.12943865978985374943E+00
    0.15149623664683536939E+00
    0.31055033880819171710E+00
    0.22901618235343551566E+00
    0.89584982182257549832E-01
    0.11446415426625317080E+00
    0.24145275004900049187E+00
    0.40799978930094754626E+00
    0.41846945761969567279E+00
    0.32805139234166580398E+00
    0.17719453358378273178E+00
    0.47220960760360190800E-01
    0.45583809702452425527E-01
    0.38008609396813344827E-01
    0.31885532690815510115E-01
    0.24567000192441103279E-01
    0.36783117199276231524E-01
    0.75262127832208924882E-01
    0.83802088317543488305E-01
    0.43779028813212689242E-01
    0.28956317409172524502E-01
    0.34580487604071855068E-01
    0.53134826427026486673E-01
    0.10042933327725224457E+00
    0.21100055022562105855E+00
    0.17629415305164052724E-01
    0.11418933078996870711E-01
    0.10289914298967224940E-01
    0.15831408176636103252E-01
    0.24497961427754875313E-01
    0.61747525782922141335E-01
    0.14901911138116741284E+00
