# vtk DataFile Version 3.0
LAPLACIEN  2D
ASCII
DATASET UNSTRUCTURED_GRID
 POINTS         391  float
  0.50371505999999999       0.50367786999999997        0.0000000000000000     
  0.29013556000000001       0.29014535000000002        0.0000000000000000     
  0.70165584999999997       0.71206597999999999        0.0000000000000000     
  0.70304188999999995       0.30176619999999998        0.0000000000000000     
  0.30920671999999999       0.71149227999999998        0.0000000000000000     
  0.79044983999999996       0.49884783999999999        0.0000000000000000     
  0.49102621000000002       0.20968644000000000        0.0000000000000000     
  0.49912957000000002       0.77208717000000004        0.0000000000000000     
  0.21724072999999999       0.48989389000000000        0.0000000000000000     
  0.83255933999999998       0.83046598000000005        0.0000000000000000     
  0.16646774000000000       0.17015694000000001        0.0000000000000000     
  0.83054514999999995       0.16736480000000001        0.0000000000000000     
  0.16953130999999999       0.83265739000000005        0.0000000000000000     
  0.42166445000000002       0.36345201999999999        0.0000000000000000     
  0.64462200999999997       0.56347807999999999        0.0000000000000000     
  0.35324633999999999       0.56311191000000005        0.0000000000000000     
  0.65456411000000003       0.84856860999999995        0.0000000000000000     
  0.35141477999999998       0.15563974000000000        0.0000000000000000     
  0.15290967000000000       0.35206625000000003        0.0000000000000000     
  0.82942241000000005       0.34936866000000000        0.0000000000000000     
  0.84390527000000004       0.64441694999999999        0.0000000000000000     
  0.63699174999999997       0.14284276000000001        0.0000000000000000     
  0.15620682999999999       0.64648446999999998        0.0000000000000000     
  0.36426062999999997       0.85756310999999996        0.0000000000000000     
  0.63489340999999999       0.40519052000000000        0.0000000000000000     
  0.52518872999999999       0.65957078000000002        0.0000000000000000     
  0.32158959999999998       0.42298103999999997        0.0000000000000000     
  0.58861710000000000       0.31711036999999997        0.0000000000000000     
  0.42078418000000001       0.69497151999999995        0.0000000000000000     
  0.48608786999999998       0.89334152000000000        0.0000000000000000     
   9.7084320000000002E-002  0.50000000000000000        0.0000000000000000     
  0.90291568000000000       0.50000000000000000        0.0000000000000000     
  0.51392453000000005       0.10668648999999999        0.0000000000000000     
  0.59792566999999996       0.73122754000000001        0.0000000000000000     
  0.74510058999999995       0.41124730999999998        0.0000000000000000     
  0.73212551999999997       0.90191560000000004        0.0000000000000000     
   9.7784830000000003E-002  0.26957329000000002        0.0000000000000000     
  0.26711221000000002        9.8671499999999995E-002   0.0000000000000000     
  0.90191560000000004       0.26787448000000003        0.0000000000000000     
  0.90118569000000004       0.73039821000000005        0.0000000000000000     
  0.73122947000000005        9.8017859999999998E-002   0.0000000000000000     
   9.8084400000000002E-002  0.73212551999999997        0.0000000000000000     
  0.26957329000000002       0.90221516999999996        0.0000000000000000     
  0.39283522999999998       0.25360379000000000        0.0000000000000000     
  0.74480864000000002       0.60495284999999999        0.0000000000000000     
  0.25505132000000003       0.60593640999999998        0.0000000000000000     
  0.52159297999999998       0.40671636000000000        0.0000000000000000     
  0.40768852000000000       0.47699891000000000        0.0000000000000000     
   9.1467049999999994E-002   9.1876959999999994E-002   0.0000000000000000     
  0.90842484999999995       0.90819225000000003        0.0000000000000000     
  0.90820104999999995        9.1566729999999999E-002   0.0000000000000000     
   9.1807449999999999E-002  0.90843574000000005        0.0000000000000000     
  0.27098960000000000       0.20527094000000001        0.0000000000000000     
  0.73457293999999995       0.79835387000000002        0.0000000000000000     
  0.79817773000000003       0.25713470999999999        0.0000000000000000     
  0.20747797000000001       0.72863946000000002        0.0000000000000000     
  0.20175195000000001       0.27583914999999998        0.0000000000000000     
  0.79603889000000005       0.72159035000000005        0.0000000000000000     
  0.71761666000000002       0.19748431999999999        0.0000000000000000     
  0.28462607000000001       0.80251899999999998        0.0000000000000000     
  0.69134598999999997       0.49261972999999998        0.0000000000000000     
  0.44720578999999999       0.58582935999999997        0.0000000000000000     
  0.24242269999999999       0.37228174000000003        0.0000000000000000     
  0.38265623999999998       0.93072131999999996        0.0000000000000000     
  0.60971754000000000       0.91988369000000003        0.0000000000000000     
   7.9163609999999995E-002  0.60979116000000000        0.0000000000000000     
  0.92010649000000000       0.61081183999999999        0.0000000000000000     
  0.61954008999999999        7.1530830000000004E-002   0.0000000000000000     
  0.91882012999999996       0.38917363999999999        0.0000000000000000     
  0.39086346000000000        8.0652249999999995E-002   0.0000000000000000     
   7.9183480000000001E-002  0.38966213000000000        0.0000000000000000     
  0.59114111999999996       0.49294315000000000        0.0000000000000000     
  0.63337980999999999       0.64485914000000000        0.0000000000000000     
  0.50012352000000004       0.29676539000000002        0.0000000000000000     
  0.82552601000000003       0.92753492000000004        0.0000000000000000     
  0.92774772999999999       0.82498556999999995        0.0000000000000000     
   7.1970870000000006E-002  0.17510291000000000        0.0000000000000000     
  0.17422821999999999        7.2635640000000001E-002   0.0000000000000000     
  0.82510813000000005        7.2134840000000006E-002   0.0000000000000000     
  0.92754665000000003       0.17446275999999999        0.0000000000000000     
  0.17501022999999999       0.92789951999999998        0.0000000000000000     
   7.2464680000000004E-002  0.82554053000000005        0.0000000000000000     
  0.30731587999999999       0.50885354999999999        0.0000000000000000     
  0.59033407999999998       0.22171178999999999        0.0000000000000000     
  0.40109191999999999       0.78725542000000004        0.0000000000000000     
  0.35420917000000002       0.63754104000000000        0.0000000000000000     
  0.15983976999999999       0.56665573000000002        0.0000000000000000     
  0.84108459999999996       0.56757886999999996        0.0000000000000000     
  0.83902096000000004       0.43344338999999998        0.0000000000000000     
  0.43230028999999998       0.16004268999999999        0.0000000000000000     
  0.57536027999999995       0.83041363999999995        0.0000000000000000     
  0.15771898000000001       0.42747892999999998        0.0000000000000000     
  0.34021692999999997       0.34221559000000001        0.0000000000000000     
  0.56002271999999997       0.57501117999999996        0.0000000000000000     
  0.65344329000000001       0.78147597999999996        0.0000000000000000     
   0.0000000000000000        0.0000000000000000        0.0000000000000000     
   1.0000000000000000        0.0000000000000000        0.0000000000000000     
   1.0000000000000000        1.0000000000000000        0.0000000000000000     
   0.0000000000000000        1.0000000000000000        0.0000000000000000     
  0.11111111000000000        0.0000000000000000        0.0000000000000000     
  0.22222222000000000        0.0000000000000000        0.0000000000000000     
  0.33333332999999998        0.0000000000000000        0.0000000000000000     
  0.44444444000000000        0.0000000000000000        0.0000000000000000     
  0.55555555999999995        0.0000000000000000        0.0000000000000000     
  0.66666667000000002        0.0000000000000000        0.0000000000000000     
  0.77777777999999997        0.0000000000000000        0.0000000000000000     
  0.88888889000000004        0.0000000000000000        0.0000000000000000     
   1.0000000000000000       0.11111111000000000        0.0000000000000000     
   1.0000000000000000       0.22222222000000000        0.0000000000000000     
   1.0000000000000000       0.33333332999999998        0.0000000000000000     
   1.0000000000000000       0.44444444000000000        0.0000000000000000     
   1.0000000000000000       0.55555555999999995        0.0000000000000000     
   1.0000000000000000       0.66666667000000002        0.0000000000000000     
   1.0000000000000000       0.77777777999999997        0.0000000000000000     
   1.0000000000000000       0.88888889000000004        0.0000000000000000     
  0.88888889000000004        1.0000000000000000        0.0000000000000000     
  0.77777777999999997        1.0000000000000000        0.0000000000000000     
  0.66666667000000002        1.0000000000000000        0.0000000000000000     
  0.55555555999999995        1.0000000000000000        0.0000000000000000     
  0.44444444000000000        1.0000000000000000        0.0000000000000000     
  0.33333332999999998        1.0000000000000000        0.0000000000000000     
  0.22222222000000000        1.0000000000000000        0.0000000000000000     
  0.11111111000000000        1.0000000000000000        0.0000000000000000     
   0.0000000000000000       0.11111111000000000        0.0000000000000000     
   0.0000000000000000       0.22222222000000000        0.0000000000000000     
[...]
 CELL_DATA         354
 SCALARS U float
 LOOKUP_TABLE default
    0.46676721067967394093E-03
    0.28612579543417577393E-01
    0.11015303060145581818E-02
    0.25124783568342039589E-02
    0.58029242560560419240E-03
    0.88015550234621668570E-03
    0.71219159652184324538E-01
    0.47099982001078587179E-01
    0.44212112160817350348E-01
    0.40747930586887450011E-01
    0.30964094649633889383E-01
    0.35345358070190485700E-01
    0.37173034165215453062E-01
    0.40547772559279902926E-01
    0.38416328842719421610E-01
    0.36794127595306785894E-01
    0.40643528987287534660E-01
    0.48399013268594061332E-01
    0.38989588487299747799E-01
    0.49644722724246026502E-01
    0.27469862846581646204E-01
    0.56478760117530169005E-01
    0.44497208297064390348E-01
    0.58408513139777532008E-01
    0.42335061435708566668E-01
    0.49640455799434830830E-01
    0.36114185963843178917E-01
    0.47558948355975849687E-01
    0.37044615848475674624E-01
    0.16167104485001977665E-01
    0.49819410929036547515E-03
    0.63949135474295469052E-03
    0.58627452382048592019E-03
    0.48107583469268532872E-03
    0.73905070958949728877E-03
    0.65953146714166105847E-03
    0.90824759347449789126E-03
    0.66471121010051230447E-03
    0.44511635432386881424E-03
    0.46021225281320785917E-03
    0.33481062406199359758E-03
    0.35529677447767877424E-03
    0.34568482829591901453E-03
    0.34894289153129099236E-03
    0.39325139474246924125E-03
    0.29386933306034643439E-03
    0.44581702642862604258E-03
    0.35982978781873113661E-03
    0.71457101946729463787E-03
    0.12020737897540938362E-02
    0.19272896649525426797E-02
    0.13932606095805315661E-02
    0.41379112991125091515E-03
    0.27223094487893105238E-03
    0.40914822408644332345E-03
    0.25484574960582659277E-03
    0.39769320590121991785E-03
    0.36853830474914265648E-03
    0.41922826844983517459E-03
    0.37518717400203323862E-03
    0.43840441629049419501E-03
    0.36579725928805360098E-03
    0.35948193529466006225E-03
    0.39931734101191710806E-03
    0.60791518941312602201E-03
    0.74518197047019956933E-03
    0.11418301679202047961E-02
    0.95132905839212696109E-03
    0.35800615144664524325E-01
    0.34212500002027669554E-01
    0.22283738408823750010E-01
    0.32503464484050323402E-01
    0.24169522941080545664E-01
    0.23424334840361396570E-01
    0.22405651044632761415E-01
    0.24360144930812843711E-01
    0.22522779093345136892E-01
    0.25032618982425081794E-01
    0.39566867187417927021E-01
    0.47165547479282712851E-01
    0.26667412709960513703E-02
    0.31156915956400695056E-01
    0.33172730438684641663E-01
    0.24816401288400652403E-01
    0.28990630513042098260E-01
    0.52821804717351025782E-01
    0.79487132107329480646E-01
    0.37173658821594145196E-01
    0.33071942546780010164E-01
    0.46038332949148080830E-01
    0.75052463295155885659E-01
    0.18991836680078824640E-01
    0.18625363828137075223E-01
    0.14445437368443602225E-02
    0.12620814674019476247E-02
    0.15161655540359313728E-02
    0.35563034774636848034E-01
    0.24378282705085296822E-01
    0.23189125475235342067E-01
    0.22085742704712609669E-01
    0.24267151616026525623E-01
    0.25152501204056917916E-01
    0.22781770669551178188E-01
    0.52554793790746137661E-01
    0.52761888313403101924E-01
    0.60818973381556888647E-01
    0.59175180735536472842E-01
    0.44507446061481138744E-01
    0.58431140214530233323E-01
    0.26277021043962220381E-01
    0.12357151783474128702E-02
    0.32075948319913234752E-01
    0.17638469064804847622E-02
    0.17646470553754492819E-02
    0.35145647607821559055E-01
    0.11162920796988939909E-01
    0.34105382000985298707E-01
    0.39687762398948944753E-01
    0.33736191536579425432E-01
    0.17961659966926907944E-01
    0.32298696234662020721E-01
    0.69850710561705732157E-03
    0.89970203271553422005E-03
    0.80081283600208779012E-03
    0.11499240458393974670E-02
    0.12945085371391278680E-02
    0.68842373330277046705E-03
    0.76443937833289767481E-03
    0.19350129071840999062E-01
    0.38298234036319510343E-01
    0.14152890090783148361E-02
    0.29020696192553326054E-01
    0.31916855663762386253E-01
    0.10940466623749604304E-02
    0.22484201484548285710E-01
    0.21106786599413396299E-01
    0.29352808257450044988E-01
    0.30811099075861402008E-01
    0.25142064232194318019E-01
    0.25833320539857495407E-01
    0.31096216645759941488E-01
    0.26916546747627334568E-01
    0.56152630625652525699E-03
    0.51187510330156658824E-03
    0.56331896703715167961E-03
    0.77082949732352589595E-03
    0.62693777712842762694E-03
    0.52156948983612700255E-03
    0.52490852921011619571E-03
    0.24265672290528977895E-01
    0.48098055504320169629E-01
    0.39402803068875565107E-01
    0.32449310990105999231E-01
    0.48600500020835969706E-01
    0.32454316455855308776E-01
    0.21654704583485919617E-01
    0.24859343514560650057E-01
    0.23954213404365973239E-01
    0.22013483669420901012E-01
    0.22952301707017189192E-01
    0.41989719785133258756E-01
    0.25959533942782362509E-01
    0.28808617543933073835E-01
    0.33013762075781251382E-01
    0.36554895865932371390E-01
    0.86161879071136387390E-03
    0.13469872795512495642E-02
    0.87205385441252100676E-03
    0.12265753798658177685E-02
    0.13849429042099249340E-02
    0.25863838204127007070E-01
    0.27211223466205979732E-01
    0.23038457410820761123E-01
    0.28437866821119015676E-01
    0.29243112849013243315E-01
    0.26365768454485277034E-01
    0.46568404074307914731E-01
    0.42256646005806877686E-01
    0.11748837228996467444E-01
    0.32322098822807204810E-01
    0.27926698978720153332E-01
    0.19119816033888382967E-01
    0.28217322941422963434E-01
    0.18991804341630624114E-01
    0.21575112083683012365E-01
    0.21884728326470510341E-02
    0.49610968298266194809E-01
    0.32326090430825120403E-01
    0.31837396755816455007E-01
    0.48693904957449490878E-01
    0.55747536397099464733E-01
    0.41825603063784980162E-01
    0.50987968119389659449E-01
    0.48055833087109117718E-01
    0.54634254590697116372E-01
    0.89105601373971009532E-03
    0.17597785482409617798E-02
    0.10959577905812049360E-02
    0.96869571546546572993E-03
    0.12842563033092365635E-02
    0.53056130548738097454E-03
    0.57413308907801753177E-03
    0.66440711488656889645E-03
    0.46206198420503788232E-03
    0.66825860378703200691E-03
    0.69300388160224754563E-01
    0.40928321629253236469E-01
    0.60830746298283923379E-01
    0.33391555047771727394E-01
    0.40143456218594532336E-01
    0.42144259918723198099E-01
    0.48870410508607471656E-01
    0.28497025159264988831E-01
    0.29629914113145590371E-01
    0.24720073875042276879E-01
    0.27743661961971630148E-01
    0.28888479690106171754E-01
    0.30287821368637807273E-01
    0.24537004284765965428E-01
    0.84098207717848344478E-01
    0.65193917601024220509E-01
    0.67855425860198964605E-01
    0.33446319206550514935E-01
    0.22863877292095230280E-02
    0.33234481293022151427E-01
    0.48895361800968843366E-03
    0.58237746672471911880E-03
    0.75789251440066358542E-03
    0.92424621963618184151E-03
    0.75403209678835702613E-03
    0.76074736442372664115E-03
    0.10689619056612228824E-02
    0.10833769221862960333E-01
    0.28135118099050546170E-01
    0.27588598976152303721E-01
    0.23960551102177249372E-01
    0.22122437355596449859E-01
    0.50688544311629016303E-01
    0.37177860672433726830E-01
    0.56884400682574609576E-01
    0.45121154309582550690E-01
    0.33635626453743509845E-01
    0.21718286419298493337E-02
    0.24775912152559729368E-01
    0.32629771784793315526E-01
    0.21188092883933380001E-01
    0.10224435516980611999E-02
    0.57397109766563355303E-03
    0.57865065953541532009E-03
    0.46426454968117994437E-01
    0.75494052126478269991E-03
    0.63892577478602595800E-03
    0.27634838085766132154E-01
    0.36545662620566160550E-01
    0.70499646383370820346E-01
    0.18959318742788999756E-01
    0.28578641513079591080E-01
    0.31600954094699734709E-01
    0.17538366090585708751E-02
    0.12703995544245539739E-02
    0.79893411832132404330E-03
    0.34450367879330139054E-01
    0.42622735101428894933E-01
    0.37243785523726681552E-01
    0.83250358637840043367E-03
    0.65103136858018465123E-03
    0.59305404133563042503E-03
    0.65652759211442060245E-03
    0.49365521407516120556E-03
    0.53044484517148838328E-03
    0.19973426911199170658E-01
    0.57249025029225422689E-01
    0.39565210256728676474E-01
    0.33927852086303993129E-01
    0.63362755028406048119E-01
    0.20421995185606878903E-01
    0.27618897015440017212E-01
    0.28240809835738546474E-01
    0.16993469474354760095E-02
    0.38549860390738592553E-01
    0.37914011433750519076E-01
    0.17957834697314999789E-01
    0.36183527379389179846E-01
    0.41949751659820247451E-01
    0.66739775221445890585E-01
    0.25782225925045698656E-01
    0.25144532493302389209E-01
    0.61027976627212531750E-03
    0.12051279450982508093E-02
    0.73185047652111426958E-03
    0.76511493432388421806E-03
    0.36197478251659642723E-01
    0.32562629218884968363E-01
    0.53268920853808776703E-03
    0.53980130567203349259E-03
    0.24167094552655324358E-01
    0.22120003910130691359E-02
    0.17504485971510930480E-02
    0.33435278931355359722E-01
    0.90586827171155136478E-03
    0.32146521947202258418E-01
    0.57525856770002097018E-01
    0.82980389799273176609E-03
    0.31683077672056844665E-01
    0.32759903595543718446E-01
    0.22887168739016153229E-01
    0.45232891853793130710E-01
    0.20318406732104863505E-01
    0.93329158680833710325E-03
    0.10037570754718176842E-02
    0.43128971010021222021E-01
    0.20107820867338515453E-01
    0.32239392295309629577E-01
    0.11598109557993353455E-01
    0.23611967509579324248E-01
    0.23633525399840506903E-01
    0.51645305925105806921E-01
    0.15720086091536419805E-02
    0.43870095391161705251E-03
    0.20244651131477551945E-03
    0.18408534021582562829E-01
    0.97364262529467324181E-02
    0.11542809347763857870E-02
    0.13088271568636030903E-02
    0.31972779577583059288E-02
    0.23505161715993956942E-02
    0.63891683699645132090E-03
    0.23785135241125139605E-01
    0.20594956550499879389E-01
    0.20217722293548304191E-01
    0.23965290560412241122E-01
    0.22292228245953869120E-01
    0.28498243755849493597E-01
    0.37316781290089258427E-01
    0.21985745514289462693E-01
    0.30395346438429893254E-01
    0.19196146907858466224E-01
    0.14950523120876564685E-03
    0.23953169866699163242E-03
    0.56463265408545032335E-03
    0.64253555346615654539E-03
    0.29862902640491966301E-03
    0.17994561767174435804E-03
    0.22381837980380559741E-03
    0.36506303208709437250E-03
    0.82076901883733051433E-03
    0.20024002006197869422E-02
    0.99771984182444895537E-04
    0.60640559228955043204E-04
    0.54506888264294315629E-04
    0.89717269211485279690E-04
    0.14984533589729000301E-03
    0.47297994918833096084E-03
    0.12943246906239578870E-02
