# vtk DataFile Version 3.0
LAPLACIEN  2D
ASCII
DATASET UNSTRUCTURED_GRID
 POINTS         391  float
  0.50371505999999999       0.50367786999999997        0.0000000000000000     
  0.29013556000000001       0.29014535000000002        0.0000000000000000     
  0.70165584999999997       0.71206597999999999        0.0000000000000000     
  0.70304188999999995       0.30176619999999998        0.0000000000000000     
  0.30920671999999999       0.71149227999999998        0.0000000000000000     
  0.79044983999999996       0.49884783999999999        0.0000000000000000     
  0.49102621000000002       0.20968644000000000        0.0000000000000000     
  0.49912957000000002       0.77208717000000004        0.0000000000000000     
  0.21724072999999999       0.48989389000000000        0.0000000000000000     
  0.83255933999999998       0.83046598000000005        0.0000000000000000     
  0.16646774000000000       0.17015694000000001        0.0000000000000000     
  0.83054514999999995       0.16736480000000001        0.0000000000000000     
  0.16953130999999999       0.83265739000000005        0.0000000000000000     
  0.42166445000000002       0.36345201999999999        0.0000000000000000     
  0.64462200999999997       0.56347807999999999        0.0000000000000000     
  0.35324633999999999       0.56311191000000005        0.0000000000000000     
  0.65456411000000003       0.84856860999999995        0.0000000000000000     
  0.35141477999999998       0.15563974000000000        0.0000000000000000     
  0.15290967000000000       0.35206625000000003        0.0000000000000000     
  0.82942241000000005       0.34936866000000000        0.0000000000000000     
  0.84390527000000004       0.64441694999999999        0.0000000000000000     
  0.63699174999999997       0.14284276000000001        0.0000000000000000     
  0.15620682999999999       0.64648446999999998        0.0000000000000000     
  0.36426062999999997       0.85756310999999996        0.0000000000000000     
  0.63489340999999999       0.40519052000000000        0.0000000000000000     
  0.52518872999999999       0.65957078000000002        0.0000000000000000     
  0.32158959999999998       0.42298103999999997        0.0000000000000000     
  0.58861710000000000       0.31711036999999997        0.0000000000000000     
  0.42078418000000001       0.69497151999999995        0.0000000000000000     
  0.48608786999999998       0.89334152000000000        0.0000000000000000     
   9.7084320000000002E-002  0.50000000000000000        0.0000000000000000     
  0.90291568000000000       0.50000000000000000        0.0000000000000000     
  0.51392453000000005       0.10668648999999999        0.0000000000000000     
  0.59792566999999996       0.73122754000000001        0.0000000000000000     
  0.74510058999999995       0.41124730999999998        0.0000000000000000     
  0.73212551999999997       0.90191560000000004        0.0000000000000000     
   9.7784830000000003E-002  0.26957329000000002        0.0000000000000000     
  0.26711221000000002        9.8671499999999995E-002   0.0000000000000000     
  0.90191560000000004       0.26787448000000003        0.0000000000000000     
  0.90118569000000004       0.73039821000000005        0.0000000000000000     
  0.73122947000000005        9.8017859999999998E-002   0.0000000000000000     
   9.8084400000000002E-002  0.73212551999999997        0.0000000000000000     
  0.26957329000000002       0.90221516999999996        0.0000000000000000     
  0.39283522999999998       0.25360379000000000        0.0000000000000000     
  0.74480864000000002       0.60495284999999999        0.0000000000000000     
  0.25505132000000003       0.60593640999999998        0.0000000000000000     
  0.52159297999999998       0.40671636000000000        0.0000000000000000     
  0.40768852000000000       0.47699891000000000        0.0000000000000000     
   9.1467049999999994E-002   9.1876959999999994E-002   0.0000000000000000     
  0.90842484999999995       0.90819225000000003        0.0000000000000000     
  0.90820104999999995        9.1566729999999999E-002   0.0000000000000000     
   9.1807449999999999E-002  0.90843574000000005        0.0000000000000000     
  0.27098960000000000       0.20527094000000001        0.0000000000000000     
  0.73457293999999995       0.79835387000000002        0.0000000000000000     
  0.79817773000000003       0.25713470999999999        0.0000000000000000     
  0.20747797000000001       0.72863946000000002        0.0000000000000000     
  0.20175195000000001       0.27583914999999998        0.0000000000000000     
  0.79603889000000005       0.72159035000000005        0.0000000000000000     
  0.71761666000000002       0.19748431999999999        0.0000000000000000     
  0.28462607000000001       0.80251899999999998        0.0000000000000000     
  0.69134598999999997       0.49261972999999998        0.0000000000000000     
  0.44720578999999999       0.58582935999999997        0.0000000000000000     
  0.24242269999999999       0.37228174000000003        0.0000000000000000     
  0.38265623999999998       0.93072131999999996        0.0000000000000000     
  0.60971754000000000       0.91988369000000003        0.0000000000000000     
   7.9163609999999995E-002  0.60979116000000000        0.0000000000000000     
  0.92010649000000000       0.61081183999999999        0.0000000000000000     
  0.61954008999999999        7.1530830000000004E-002   0.0000000000000000     
  0.91882012999999996       0.38917363999999999        0.0000000000000000     
  0.39086346000000000        8.0652249999999995E-002   0.0000000000000000     
   7.9183480000000001E-002  0.38966213000000000        0.0000000000000000     
  0.59114111999999996       0.49294315000000000        0.0000000000000000     
  0.63337980999999999       0.64485914000000000        0.0000000000000000     
  0.50012352000000004       0.29676539000000002        0.0000000000000000     
  0.82552601000000003       0.92753492000000004        0.0000000000000000     
  0.92774772999999999       0.82498556999999995        0.0000000000000000     
   7.1970870000000006E-002  0.17510291000000000        0.0000000000000000     
  0.17422821999999999        7.2635640000000001E-002   0.0000000000000000     
  0.82510813000000005        7.2134840000000006E-002   0.0000000000000000     
  0.92754665000000003       0.17446275999999999        0.0000000000000000     
  0.17501022999999999       0.92789951999999998        0.0000000000000000     
   7.2464680000000004E-002  0.82554053000000005        0.0000000000000000     
  0.30731587999999999       0.50885354999999999        0.0000000000000000     
  0.59033407999999998       0.22171178999999999        0.0000000000000000     
  0.40109191999999999       0.78725542000000004        0.0000000000000000     
  0.35420917000000002       0.63754104000000000        0.0000000000000000     
  0.15983976999999999       0.56665573000000002        0.0000000000000000     
  0.84108459999999996       0.56757886999999996        0.0000000000000000     
  0.83902096000000004       0.43344338999999998        0.0000000000000000     
  0.43230028999999998       0.16004268999999999        0.0000000000000000     
  0.57536027999999995       0.83041363999999995        0.0000000000000000     
  0.15771898000000001       0.42747892999999998        0.0000000000000000     
  0.34021692999999997       0.34221559000000001        0.0000000000000000     
  0.56002271999999997       0.57501117999999996        0.0000000000000000     
  0.65344329000000001       0.78147597999999996        0.0000000000000000     
   0.0000000000000000        0.0000000000000000        0.0000000000000000     
   1.0000000000000000        0.0000000000000000        0.0000000000000000     
   1.0000000000000000        1.0000000000000000        0.0000000000000000     
   0.0000000000000000        1.0000000000000000        0.0000000000000000     
  0.11111111000000000        0.0000000000000000        0.0000000000000000     
  0.22222222000000000        0.0000000000000000        0.0000000000000000     
  0.33333332999999998        0.0000000000000000        0.0000000000000000     
  0.44444444000000000        0.0000000000000000        0.0000000000000000     
  0.55555555999999995        0.0000000000000000        0.0000000000000000     
  0.66666667000000002        0.0000000000000000        0.0000000000000000     
  0.77777777999999997        0.0000000000000000        0.0000000000000000     
  0.88888889000000004        0.0000000000000000        0.0000000000000000     
   1.0000000000000000       0.11111111000000000        0.0000000000000000     
   1.0000000000000000       0.22222222000000000        0.0000000000000000     
   1.0000000000000000       0.33333332999999998        0.0000000000000000     
   1.0000000000000000       0.44444444000000000        0.0000000000000000     
   1.0000000000000000       0.55555555999999995        0.0000000000000000     
   1.0000000000000000       0.66666667000000002        0.0000000000000000     
   1.0000000000000000       0.77777777999999997        0.0000000000000000     
   1.0000000000000000       0.88888889000000004        0.0000000000000000     
  0.88888889000000004        1.0000000000000000        0.0000000000000000     
  0.77777777999999997        1.0000000000000000        0.0000000000000000     
  0.66666667000000002        1.0000000000000000        0.0000000000000000     
  0.55555555999999995        1.0000000000000000        0.0000000000000000     
  0.44444444000000000        1.0000000000000000        0.0000000000000000     
  0.33333332999999998        1.0000000000000000        0.0000000000000000     
  0.22222222000000000        1.0000000000000000        0.0000000000000000     
  0.11111111000000000        1.0000000000000000        0.0000000000000000     
   0.0000000000000000       0.11111111000000000        0.0000000000000000     
   0.0000000000000000       0.22222222000000000        0.0000000000000000     
[...]
 CELL_DATA         354
 SCALARS U float
 LOOKUP_TABLE default
    0.19598565282613072025E-03
    0.27618003605155112129E-01
    0.54843512785120542875E-03
    0.14334778087809686882E-02
    0.24414209155549759355E-03
    0.42239557710680038748E-03
    0.43184959748915910382E-01
    0.26246360326085099723E-01
    0.27145373907202233893E-01
    0.20514526767361332404E-01
    0.14749492470549109557E-01
    0.16671526419640408240E-01
    0.18807152698220926113E-01
    0.19843586228847371472E-01
    0.19202421778697471855E-01
    0.17790226279921581704E-01
    0.19116091775451100887E-01
    0.21268333897839355323E-01
    0.24178464201247792942E-01
    0.24804302876845939901E-01
    0.27043620299095759429E-01
    0.34740956048262126854E-01
    0.24477178307297536852E-01
    0.35490132977776353562E-01
    0.23010847876679858121E-01
    0.24013921934992472906E-01
    0.27023054490593060445E-01
    0.23312916100291115190E-01
    0.30056920578945441058E-01
    0.13545468437399753314E-01
    0.22045666218938059092E-03
    0.29178761998054992058E-03
    0.25699626739814410408E-03
    0.20712146556749321956E-03
    0.33772905045880720863E-03
    0.29770105073247013321E-03
    0.42205777127997710181E-03
    0.29862536999482336159E-03
    0.18481540684178997822E-03
    0.18959737550729914525E-03
    0.13904124979461618384E-03
    0.14438359537326576031E-03
    0.14357257033724749561E-03
    0.14204772210309947358E-03
    0.16183547844650565152E-03
    0.11231271429401167971E-03
    0.18567893655790980467E-03
    0.14286686361193390239E-03
    0.33708987852662134843E-03
    0.62099880097255129828E-03
    0.10810515965235835412E-02
    0.75148813669206990674E-03
    0.17421591271851288169E-03
    0.99294053542112653337E-04
    0.17624886098382877130E-03
    0.93404808200876654370E-04
    0.17295698534845006583E-03
    0.15129997343769999727E-03
    0.18030453700498363955E-03
    0.15328826056955357788E-03
    0.18649244700563949667E-03
    0.15165560784440618061E-03
    0.15397808294782388411E-03
    0.16553979301091545384E-03
    0.27624256431608502005E-03
    0.33808397666443658954E-03
    0.58750155224175995561E-03
    0.47487592117639182161E-03
    0.17567533860389093064E-01
    0.19150927490778603401E-01
    0.12408067109984533688E-01
    0.17019262693510818496E-01
    0.13342485502991427437E-01
    0.12926250199490908407E-01
    0.11450693995193382199E-01
    0.12180946194294699908E-01
    0.12698544860338785434E-01
    0.15266800875884257993E-01
    0.24769140877005001861E-01
    0.29593425439026446733E-01
    0.28338883994339738627E-02
    0.20719901895987876544E-01
    0.18342112522703169636E-01
    0.17958352065469581488E-01
    0.14717683615872695357E-01
    0.33012240230675386765E-01
    0.40091253430820303350E-01
    0.21160511702222457170E-01
    0.16281459406382939314E-01
    0.36079069715602672674E-01
    0.46266429352266769115E-01
    0.12558316167718266282E-01
    0.17334620391087528918E-01
    0.69572844092825078359E-03
    0.59472390431858878062E-03
    0.73477586212535148016E-03
    0.28850865147701444668E-01
    0.12097621416535425318E-01
    0.12744408422457277966E-01
    0.11782827358821738872E-01
    0.13816389501405757292E-01
    0.12627895715827334999E-01
    0.12634726790258472146E-01
    0.32460139298377960193E-01
    0.29574666053548984146E-01
    0.29244006782497458663E-01
    0.31814594115180838685E-01
    0.24510671245075721369E-01
    0.37512728277583597125E-01
    0.17561525600023913940E-01
    0.57370863330155597547E-03
    0.20373870062505700790E-01
    0.19528892980092938617E-02
    0.95398569598311670076E-03
    0.19608814841236676257E-01
    0.11276067417424073466E-01
    0.25190751661345427148E-01
    0.19269690838376846154E-01
    0.19369627677577827551E-01
    0.15376905012754273072E-01
    0.20391807483152047525E-01
    0.30880710402483570144E-03
    0.40751314580976560117E-03
    0.36946338088220234729E-03
    0.53368329584187461801E-03
    0.60792526688858332731E-03
    0.31144734199444850916E-03
    0.34822647543629204345E-03
    0.12750096259643378671E-01
    0.24436926331939886475E-01
    0.22033633467524182947E-02
    0.16698108950593208016E-01
    0.19625509349427083805E-01
    0.52272070457645095770E-03
    0.16755910078189589080E-01
    0.11534989900224628182E-01
    0.17285928606400290108E-01
    0.15949869651684343841E-01
    0.13968282235853071716E-01
    0.13972701233277710214E-01
    0.17148827144929129629E-01
    0.14177599257010937636E-01
    0.24772759979405176850E-03
    0.22505396205755803666E-03
    0.24425899755501815453E-03
    0.35072098693936086013E-03
    0.27459758835433623883E-03
    0.22627496820096641727E-03
    0.22859874650350912309E-03
    0.13181971088305521542E-01
    0.25368537093332265558E-01
    0.24859554331008941463E-01
    0.17010869287079437989E-01
    0.29187593623034434331E-01
    0.19318262691402011272E-01
    0.12154594784328596330E-01
    0.14088367874062484794E-01
    0.12852621331650961739E-01
    0.11973505911276969421E-01
    0.13184694581183906831E-01
    0.17590665416210279903E-01
    0.14051078590051004416E-01
    0.13403721181761096143E-01
    0.13327367665116522308E-01
    0.16852263910183924028E-01
    0.38128188156710558082E-03
    0.61002202811031073192E-03
    0.38094451968224182347E-03
    0.55704444993425372874E-03
    0.64278320265419449341E-03
    0.15941607897602693561E-01
    0.14809405669721865950E-01
    0.12316165538431822143E-01
    0.19769887193493936028E-01
    0.17607041539200795482E-01
    0.20065021915905745936E-01
    0.31094459115342459182E-01
    0.16774097170875326007E-01
    0.10474039205609421074E-01
    0.14912944284497403960E-01
    0.15338025667215780812E-01
    0.11762683284398603098E-01
    0.16779579350888570999E-01
    0.10880478433505388555E-01
    0.12354484307751097821E-01
    0.14936671989340284932E-02
    0.28748038221085354949E-01
    0.16823483381715444163E-01
    0.15750492184398806605E-01
    0.27383851550350044035E-01
    0.33072618872453593553E-01
    0.23498568022524195242E-01
    0.26329742172490844254E-01
    0.26007172002516780462E-01
    0.28418550112955277831E-01
    0.40363646347316508873E-03
    0.89909493601248856743E-03
    0.50613281049560624250E-03
    0.42407148765533797139E-03
    0.59355030428356512183E-03
    0.22418813899456661821E-03
    0.23662592566333243518E-03
    0.27822046709599006307E-03
    0.18584598899920446564E-03
    0.28557149867133158451E-03
    0.44043498582299514532E-01
    0.22442708387339103948E-01
    0.38890522992835088734E-01
    0.15934002759480685868E-01
    0.24201084289315576148E-01
    0.25196128628936276250E-01
    0.30562012890099209128E-01
    0.15392460101098154324E-01
    0.16526350074622608854E-01
    0.13203053555226232363E-01
    0.15690675543391645330E-01
    0.16612441655513173616E-01
    0.16762939167859744471E-01
    0.15419984847052510893E-01
    0.45190474277549380622E-01
    0.54700086609072884336E-01
    0.53319891492091348040E-01
    0.17131431280815040408E-01
    0.22876869454436276133E-02
    0.18773932733125969774E-01
    0.20382358982340889456E-03
    0.24871290483151819659E-03
    0.32084141359324573834E-03
    0.42090085931580914144E-03
    0.32189913273261944009E-03
    0.32670356019269753333E-03
    0.49502285886761430815E-03
    0.11033481599583987859E-01
    0.22173893774911409421E-01
    0.16869434845092241837E-01
    0.13828242078686686645E-01
    0.11016528806425403275E-01
    0.27832868761515069944E-01
    0.18720030126517121782E-01
    0.36991087656616621071E-01
    0.24333001341282772811E-01
    0.18167930354298207629E-01
    0.11949959390798042813E-02
    0.17922328496115493696E-01
    0.16990146251891220797E-01
    0.11249161194697524305E-01
    0.46856872254239683492E-03
    0.24354437002691199524E-03
    0.24963997461506569429E-03
    0.33334453116578476040E-01
    0.33406860264276774753E-03
    0.27069510322479242498E-03
    0.15062319742180235033E-01
    0.21966739038062878253E-01
    0.42463709777727266792E-01
    0.11058307671309029058E-01
    0.17986187045833081088E-01
    0.19375655583579908664E-01
    0.11472957622748001377E-02
    0.66640354119370875333E-03
    0.36397820317580706091E-03
    0.20533596818725057681E-01
    0.22806460788032840992E-01
    0.19262421731219007276E-01
    0.37751925602435014613E-03
    0.28062505821431753955E-03
    0.26502571749757887877E-03
    0.28502753236648458888E-03
    0.20417806206983498524E-03
    0.23190346673548537610E-03
    0.99952539622001086023E-02
    0.29790316602744545960E-01
    0.22453907323370485283E-01
    0.20148431944147018879E-01
    0.36505642970199050912E-01
    0.11193392024121102610E-01
    0.16286421265815722442E-01
    0.17096259379047309968E-01
    0.87192102949087935907E-03
    0.17740710154866029535E-01
    0.26762737437587787170E-01
    0.15345820616066960934E-01
    0.18024035026875176446E-01
    0.25342480722980766095E-01
    0.37077974477756528437E-01
    0.14534226897482443314E-01
    0.13679809224497088693E-01
    0.24988572271571581540E-03
    0.20850123910484490673E-02
    0.33408181464875179268E-03
    0.35077315086946082899E-03
    0.19861948652643339475E-01
    0.19237010684311869890E-01
    0.23384899820881043810E-03
    0.23878553167077176483E-03
    0.12155569105911291639E-01
    0.25436663377801276356E-02
    0.84425058175979219785E-03
    0.17318703879604983864E-01
    0.40776133079170660909E-03
    0.17095908833013859218E-01
    0.41054959444560071291E-01
    0.35817438166156812971E-03
    0.16703263539558147605E-01
    0.14791295693136868525E-01
    0.12876716060993057683E-01
    0.16029393973106369209E-01
    0.12170691000084726471E-01
    0.42088744154316861572E-03
    0.44372003923344265335E-03
    0.24062083525110633531E-01
    0.10587880433854002238E-01
    0.18203969050696381521E-01
    0.10365878486830700997E-01
    0.12756248598232603625E-01
    0.12595975867462699468E-01
    0.47240031898591064441E-01
    0.74106231010121208398E-03
    0.17236890750029583083E-03
    0.69549238782539837063E-04
    0.12337762559586754052E-01
    0.14971213785966681203E-01
    0.59219189229933971805E-03
    0.67170310897456055217E-03
    0.18844095438960816857E-02
    0.13519655187079690495E-02
    0.28038065494723673956E-03
    0.16411630289517874920E-01
    0.96852053127130157545E-02
    0.11517857268519310354E-01
    0.13239071318126996793E-01
    0.11338456754943880209E-01
    0.12283686339575952684E-01
    0.21528983152080221480E-01
    0.92310485991890442459E-02
    0.11226923426911030596E-01
    0.15206170179328681868E-01
    0.48319576465033473359E-04
    0.86002893738226771341E-04
    0.24322899695127043530E-03
    0.28551695265718667971E-03
    0.11383347624042126391E-03
    0.59105400107699885138E-04
    0.78695824104300118830E-04
    0.14175430466693868920E-03
    0.39535060139967895905E-03
    0.11042834489521716201E-02
    0.28473844915036589711E-04
    0.15200373663434392426E-04
    0.13362454813845048193E-04
    0.25116523087621887774E-04
    0.47978312967079261462E-04
    0.20866527740892175683E-03
    0.66278643138220811899E-03
