# vtk DataFile Version 3.0
LAPLACIEN  2D
ASCII
DATASET UNSTRUCTURED_GRID
 POINTS         391  float
  0.50371505999999999       0.50367786999999997        0.0000000000000000     
  0.29013556000000001       0.29014535000000002        0.0000000000000000     
  0.70165584999999997       0.71206597999999999        0.0000000000000000     
  0.70304188999999995       0.30176619999999998        0.0000000000000000     
  0.30920671999999999       0.71149227999999998        0.0000000000000000     
  0.79044983999999996       0.49884783999999999        0.0000000000000000     
  0.49102621000000002       0.20968644000000000        0.0000000000000000     
  0.49912957000000002       0.77208717000000004        0.0000000000000000     
  0.21724072999999999       0.48989389000000000        0.0000000000000000     
  0.83255933999999998       0.83046598000000005        0.0000000000000000     
  0.16646774000000000       0.17015694000000001        0.0000000000000000     
  0.83054514999999995       0.16736480000000001        0.0000000000000000     
  0.16953130999999999       0.83265739000000005        0.0000000000000000     
  0.42166445000000002       0.36345201999999999        0.0000000000000000     
  0.64462200999999997       0.56347807999999999        0.0000000000000000     
  0.35324633999999999       0.56311191000000005        0.0000000000000000     
  0.65456411000000003       0.84856860999999995        0.0000000000000000     
  0.35141477999999998       0.15563974000000000        0.0000000000000000     
  0.15290967000000000       0.35206625000000003        0.0000000000000000     
  0.82942241000000005       0.34936866000000000        0.0000000000000000     
  0.84390527000000004       0.64441694999999999        0.0000000000000000     
  0.63699174999999997       0.14284276000000001        0.0000000000000000     
  0.15620682999999999       0.64648446999999998        0.0000000000000000     
  0.36426062999999997       0.85756310999999996        0.0000000000000000     
  0.63489340999999999       0.40519052000000000        0.0000000000000000     
  0.52518872999999999       0.65957078000000002        0.0000000000000000     
  0.32158959999999998       0.42298103999999997        0.0000000000000000     
  0.58861710000000000       0.31711036999999997        0.0000000000000000     
  0.42078418000000001       0.69497151999999995        0.0000000000000000     
  0.48608786999999998       0.89334152000000000        0.0000000000000000     
   9.7084320000000002E-002  0.50000000000000000        0.0000000000000000     
  0.90291568000000000       0.50000000000000000        0.0000000000000000     
  0.51392453000000005       0.10668648999999999        0.0000000000000000     
  0.59792566999999996       0.73122754000000001        0.0000000000000000     
  0.74510058999999995       0.41124730999999998        0.0000000000000000     
  0.73212551999999997       0.90191560000000004        0.0000000000000000     
   9.7784830000000003E-002  0.26957329000000002        0.0000000000000000     
  0.26711221000000002        9.8671499999999995E-002   0.0000000000000000     
  0.90191560000000004       0.26787448000000003        0.0000000000000000     
  0.90118569000000004       0.73039821000000005        0.0000000000000000     
  0.73122947000000005        9.8017859999999998E-002   0.0000000000000000     
   9.8084400000000002E-002  0.73212551999999997        0.0000000000000000     
  0.26957329000000002       0.90221516999999996        0.0000000000000000     
  0.39283522999999998       0.25360379000000000        0.0000000000000000     
  0.74480864000000002       0.60495284999999999        0.0000000000000000     
  0.25505132000000003       0.60593640999999998        0.0000000000000000     
  0.52159297999999998       0.40671636000000000        0.0000000000000000     
  0.40768852000000000       0.47699891000000000        0.0000000000000000     
   9.1467049999999994E-002   9.1876959999999994E-002   0.0000000000000000     
  0.90842484999999995       0.90819225000000003        0.0000000000000000     
  0.90820104999999995        9.1566729999999999E-002   0.0000000000000000     
   9.1807449999999999E-002  0.90843574000000005        0.0000000000000000     
  0.27098960000000000       0.20527094000000001        0.0000000000000000     
  0.73457293999999995       0.79835387000000002        0.0000000000000000     
  0.79817773000000003       0.25713470999999999        0.0000000000000000     
  0.20747797000000001       0.72863946000000002        0.0000000000000000     
  0.20175195000000001       0.27583914999999998        0.0000000000000000     
  0.79603889000000005       0.72159035000000005        0.0000000000000000     
  0.71761666000000002       0.19748431999999999        0.0000000000000000     
  0.28462607000000001       0.80251899999999998        0.0000000000000000     
  0.69134598999999997       0.49261972999999998        0.0000000000000000     
  0.44720578999999999       0.58582935999999997        0.0000000000000000     
  0.24242269999999999       0.37228174000000003        0.0000000000000000     
  0.38265623999999998       0.93072131999999996        0.0000000000000000     
  0.60971754000000000       0.91988369000000003        0.0000000000000000     
   7.9163609999999995E-002  0.60979116000000000        0.0000000000000000     
  0.92010649000000000       0.61081183999999999        0.0000000000000000     
  0.61954008999999999        7.1530830000000004E-002   0.0000000000000000     
  0.91882012999999996       0.38917363999999999        0.0000000000000000     
  0.39086346000000000        8.0652249999999995E-002   0.0000000000000000     
   7.9183480000000001E-002  0.38966213000000000        0.0000000000000000     
  0.59114111999999996       0.49294315000000000        0.0000000000000000     
  0.63337980999999999       0.64485914000000000        0.0000000000000000     
  0.50012352000000004       0.29676539000000002        0.0000000000000000     
  0.82552601000000003       0.92753492000000004        0.0000000000000000     
  0.92774772999999999       0.82498556999999995        0.0000000000000000     
   7.1970870000000006E-002  0.17510291000000000        0.0000000000000000     
  0.17422821999999999        7.2635640000000001E-002   0.0000000000000000     
  0.82510813000000005        7.2134840000000006E-002   0.0000000000000000     
  0.92754665000000003       0.17446275999999999        0.0000000000000000     
  0.17501022999999999       0.92789951999999998        0.0000000000000000     
   7.2464680000000004E-002  0.82554053000000005        0.0000000000000000     
  0.30731587999999999       0.50885354999999999        0.0000000000000000     
  0.59033407999999998       0.22171178999999999        0.0000000000000000     
  0.40109191999999999       0.78725542000000004        0.0000000000000000     
  0.35420917000000002       0.63754104000000000        0.0000000000000000     
  0.15983976999999999       0.56665573000000002        0.0000000000000000     
  0.84108459999999996       0.56757886999999996        0.0000000000000000     
  0.83902096000000004       0.43344338999999998        0.0000000000000000     
  0.43230028999999998       0.16004268999999999        0.0000000000000000     
  0.57536027999999995       0.83041363999999995        0.0000000000000000     
  0.15771898000000001       0.42747892999999998        0.0000000000000000     
  0.34021692999999997       0.34221559000000001        0.0000000000000000     
  0.56002271999999997       0.57501117999999996        0.0000000000000000     
  0.65344329000000001       0.78147597999999996        0.0000000000000000     
   0.0000000000000000        0.0000000000000000        0.0000000000000000     
   1.0000000000000000        0.0000000000000000        0.0000000000000000     
   1.0000000000000000        1.0000000000000000        0.0000000000000000     
   0.0000000000000000        1.0000000000000000        0.0000000000000000     
  0.11111111000000000        0.0000000000000000        0.0000000000000000     
  0.22222222000000000        0.0000000000000000        0.0000000000000000     
  0.33333332999999998        0.0000000000000000        0.0000000000000000     
  0.44444444000000000        0.0000000000000000        0.0000000000000000     
  0.55555555999999995        0.0000000000000000        0.0000000000000000     
  0.66666667000000002        0.0000000000000000        0.0000000000000000     
  0.77777777999999997        0.0000000000000000        0.0000000000000000     
  0.88888889000000004        0.0000000000000000        0.0000000000000000     
   1.0000000000000000       0.11111111000000000        0.0000000000000000     
   1.0000000000000000       0.22222222000000000        0.0000000000000000     
   1.0000000000000000       0.33333332999999998        0.0000000000000000     
   1.0000000000000000       0.44444444000000000        0.0000000000000000     
   1.0000000000000000       0.55555555999999995        0.0000000000000000     
   1.0000000000000000       0.66666667000000002        0.0000000000000000     
   1.0000000000000000       0.77777777999999997        0.0000000000000000     
   1.0000000000000000       0.88888889000000004        0.0000000000000000     
  0.88888889000000004        1.0000000000000000        0.0000000000000000     
  0.77777777999999997        1.0000000000000000        0.0000000000000000     
  0.66666667000000002        1.0000000000000000        0.0000000000000000     
  0.55555555999999995        1.0000000000000000        0.0000000000000000     
  0.44444444000000000        1.0000000000000000        0.0000000000000000     
  0.33333332999999998        1.0000000000000000        0.0000000000000000     
  0.22222222000000000        1.0000000000000000        0.0000000000000000     
  0.11111111000000000        1.0000000000000000        0.0000000000000000     
   0.0000000000000000       0.11111111000000000        0.0000000000000000     
   0.0000000000000000       0.22222222000000000        0.0000000000000000     
[...]
 CELL_DATA         354
 SCALARS U float
 LOOKUP_TABLE default
    0.13527714536950844935E-03
    0.25367483810260788718E-01
    0.40790550950083092133E-03
    0.11247248174464168861E-02
    0.16899569926906001850E-03
    0.36815651407318057990E-03
    0.32238493244918099701E-01
    0.17321958948633864317E-01
    0.22545981905577036630E-01
    0.15524114875548734524E-01
    0.11335659662866429814E-01
    0.12639764042786079748E-01
    0.14630662881678323239E-01
    0.15252117691216048739E-01
    0.14877400910993140992E-01
    0.13715387389655537762E-01
    0.14189240459837756947E-01
    0.14859815791288449871E-01
    0.19104602724415289949E-01
    0.17911300423147293037E-01
    0.26182545154420075462E-01
    0.27366817273924738674E-01
    0.19113120246633676091E-01
    0.26454931107920590105E-01
    0.17844251740223630864E-01
    0.17467201729315633835E-01
    0.22508611344060687476E-01
    0.16959933594769903420E-01
    0.26101009362160046412E-01
    0.12118401681314566395E-01
    0.15631739636144938665E-03
    0.21009711405772747359E-03
    0.18125672938455283760E-03
    0.14545177237825895325E-03
    0.24227041578133405456E-03
    0.21255741550442705285E-03
    0.30416763572431936794E-03
    0.21280041278772316078E-03
    0.12731657140805941733E-03
    0.13053791771543366224E-03
    0.95939312325479285458E-04
    0.98441413834357815440E-04
    0.98831883645173122213E-04
    0.96903085271977525378E-04
    0.11100597370259571021E-03
    0.74925708509367879300E-04
    0.12842089639655365784E-03
    0.96592450000968968883E-04
    0.24592062517902210737E-03
    0.46924338466180820408E-03
    0.84298944557068325716E-03
    0.57737774016834351141E-03
    0.12058053988260635436E-03
    0.64659272168635209587E-04
    0.12360754657980102967E-03
    0.60925700514522843879E-04
    0.12166664355137562527E-03
    0.10379587099456818176E-03
    0.12577054363136107502E-03
    0.10498129023301686297E-03
    0.12958661691465122906E-03
    0.10441904327226094156E-03
    0.10784703995740545278E-03
    0.11389952621316477279E-03
    0.19761167484586816801E-03
    0.24138412301872067640E-03
    0.44209178832815441626E-03
    0.35368738823312901188E-03
    0.13214189853854588913E-01
    0.15313990951603255811E-01
    0.10204802213078158213E-01
    0.13614619812076327737E-01
    0.11059273040278308139E-01
    0.10708512410271851106E-01
    0.92694262006236729373E-02
    0.94682076435410548326E-02
    0.10320630574005722202E-01
    0.12953279215382564049E-01
    0.20086388118496310146E-01
    0.22640604044532487010E-01
    0.37296094214954444990E-02
    0.16565563001198074788E-01
    0.15619026528240716190E-01
    0.14123978935393525364E-01
    0.11331505209527104397E-01
    0.27306415821703684810E-01
    0.28335230436017388306E-01
    0.17316131266032677022E-01
    0.12453436001486092519E-01
    0.31744922444994570776E-01
    0.35732533887692520536E-01
    0.10237732975426098656E-01
    0.14910288219394086939E-01
    0.51024970792212125982E-03
    0.43204501569742191983E-03
    0.54133121391667813824E-03
    0.24369501288898746949E-01
    0.93954670198857521274E-02
    0.10521046284708466048E-01
    0.95734057535691984703E-02
    0.11508138762217576603E-01
    0.98959135201234574297E-02
    0.10457588290567053357E-01
    0.25486638677452141954E-01
    0.22480160824139103215E-01
    0.24309542428245026202E-01
    0.27248428727147076811E-01
    0.19561394893398788286E-01
    0.28508957680079952124E-01
    0.14884950432055720285E-01
    0.41488761433683705787E-03
    0.15815513605281276283E-01
    0.28737187273209941624E-02
    0.14563539982706151174E-02
    0.15238405610588014183E-01
    0.10110214394538824534E-01
    0.21132099236896736277E-01
    0.13988833595497643381E-01
    0.15483270412066967719E-01
    0.12963321511601797256E-01
    0.16289130825226174476E-01
    0.21855297857478078218E-03
    0.29130000746724614728E-03
    0.26624088508795198428E-03
    0.38547931885905546527E-03
    0.44129204612018734302E-03
    0.22242233013905506988E-03
    0.24961752279362630714E-03
    0.10814934230270901311E-01
    0.20119553757087689505E-01
    0.31723788195057115585E-02
    0.13528542224620828185E-01
    0.16189640280373163855E-01
    0.38229529578157002466E-03
    0.15294012862568033551E-01
    0.94291950107687153709E-02
    0.14248546755221726257E-01
    0.12357275067387226905E-01
    0.11503385065476694898E-01
    0.11317724621409841479E-01
    0.13645330605448197439E-01
    0.11148947444501178250E-01
    0.17515217597244387110E-03
    0.15896795981760059990E-03
    0.17179365229040067554E-03
    0.25102857348569869054E-03
    0.19361541653774197013E-03
    0.15895097731888693923E-03
    0.16090183685487074311E-03
    0.10668734785837009210E-01
    0.19856768700277187267E-01
    0.21432374321439039144E-01
    0.13581093899447477247E-01
    0.24632845384999952493E-01
    0.15863883917433922732E-01
    0.98970472325600970104E-02
    0.11675877739436677991E-01
    0.10565765305295894000E-01
    0.97088714741796599411E-02
    0.11133577599128108640E-01
    0.12776482220415476265E-01
    0.11276698268467571021E-01
    0.10211447580812410552E-01
    0.96624912055883055428E-02
    0.12477179370161598990E-01
    0.27001452924320590776E-03
    0.43741567947729948418E-03
    0.26844505754506666189E-03
    0.39926911353584294698E-03
    0.46772376282715134779E-03
    0.13372600172670386781E-01
    0.12149114610006166159E-01
    0.10086200646210061183E-01
    0.16995906206157814639E-01
    0.14584511134465164353E-01
    0.16279242066771757586E-01
    0.24398772600089477236E-01
    0.12026499254295285740E-01
    0.88635267116635978873E-02
    0.11236655097888317151E-01
    0.12538460120699656403E-01
    0.10028122662627576497E-01
    0.13778945460597989345E-01
    0.90031522836941432070E-02
    0.10303764160659818760E-01
    0.19981383174004661504E-02
    0.22535925512184327990E-01
    0.12416880974808332944E-01
    0.10374186519548347571E-01
    0.20409290177383451748E-01
    0.26277213471701185710E-01
    0.18449586155965293222E-01
    0.21080019964467289206E-01
    0.20215366451629596806E-01
    0.22551710042968037967E-01
    0.28892230257074785803E-03
    0.67665794487197395302E-03
    0.36462406183487009381E-03
    0.29996756489172822545E-03
    0.42921711880903083095E-03
    0.15546788141833456733E-03
    0.16326203255875596713E-03
    0.19293160742182171685E-03
    0.12652578753270324742E-03
    0.19931077491697500375E-03
    0.34693771135141757145E-01
    0.18062771166714751414E-01
    0.31090762526013997202E-01
    0.12108593397221716417E-01
    0.20321415821949712077E-01
    0.19504075886406811724E-01
    0.23364841209701413260E-01
    0.12183776067927018505E-01
    0.13114275645106518442E-01
    0.10581532629806260359E-01
    0.12953617338684549759E-01
    0.13313469007087401497E-01
    0.13261322323806484097E-01
    0.13131001333772034101E-01
    0.32214638745433107903E-01
    0.42303894158448381024E-01
    0.39751887472133318191E-01
    0.13108029434768887767E-01
    0.31463015544982084193E-02
    0.14610808010549550251E-01
    0.14053219458285302001E-03
    0.17279463952511251302E-03
    0.22334887472565278133E-03
    0.30141866770170698715E-03
    0.22411907319574219202E-03
    0.22798248149249832452E-03
    0.36072267477952799607E-03
    0.99008751077611870800E-02
    0.20059941439859382828E-01
    0.13459611201520012280E-01
    0.11664591468637632368E-01
    0.85472576619355991601E-02
    0.21876711327994093764E-01
    0.14593365501413064350E-01
    0.29202643516011941860E-01
    0.19291463155763539233E-01
    0.15163564570623101757E-01
    0.16518519034704887138E-02
    0.14089349705538128932E-01
    0.13498373600646254231E-01
    0.92167420305015353155E-02
    0.33678714576892092693E-03
    0.16919418972135167266E-03
    0.17485375010731725779E-03
    0.27358212120101154524E-01
    0.37315228769610974107E-03
    0.18867641431563784917E-03
    0.12086693122583419893E-01
    0.17791604110987391946E-01
    0.30822655619577705999E-01
    0.92647133615065702800E-02
    0.14737479660044685084E-01
    0.15727639074629134325E-01
    0.14198017984959998387E-02
    0.78673119349296951729E-03
    0.26061328746608119220E-03
    0.16620328960138763819E-01
    0.17966694404913698124E-01
    0.14861985326569444529E-01
    0.27009022035268158771E-03
    0.19663795792357742324E-03
    0.18837841708187942776E-03
    0.20051720258823307278E-03
    0.14088362752076520851E-03
    0.16346230610728536758E-03
    0.80650508568302810286E-02
    0.22008734523742301548E-01
    0.18287640878252887922E-01
    0.16638920882679503893E-01
    0.26367295058874768571E-01
    0.91024339036600322717E-02
    0.13383166031535151386E-01
    0.14535646665643579475E-01
    0.65753055038501417688E-03
    0.13674736360799693777E-01
    0.21974688597340391594E-01
    0.12928809996269814350E-01
    0.13698253540821396859E-01
    0.21313245785265801796E-01
    0.28632604293468005840E-01
    0.11987085368100523775E-01
    0.10982425994306970612E-01
    0.17096214649939527747E-03
    0.30805546905507473314E-02
    0.23958002712152137118E-03
    0.25228051409060690737E-03
    0.15025466044814951572E-01
    0.16650416707414752993E-01
    0.16518644979062369234E-03
    0.16920949439542230536E-03
    0.94079987312199499228E-02
    0.34873523810745152458E-02
    0.62834943717963510131E-03
    0.13833517109848262466E-01
    0.29091282631197570765E-03
    0.12923452224741395836E-01
    0.36099497331495415675E-01
    0.25121322719417777270E-03
    0.13359410167824773558E-01
    0.10889455352389037363E-01
    0.10661933318103030202E-01
    0.10831705681430176674E-01
    0.10207313353316987622E-01
    0.30030159195066214979E-03
    0.31508830854004820895E-03
    0.17820280832204039162E-01
    0.83991229029581233878E-02
    0.14619753419193118674E-01
    0.86384764507183766508E-02
    0.10561774958283373996E-01
    0.10142912894585166816E-01
    0.41543102221699108878E-01
    0.54239718069590324521E-03
    0.11588203616784436721E-03
    0.44228329942150251895E-04
    0.10269920842355836216E-01
    0.14850841394829139910E-01
    0.44615583840718303459E-03
    0.50523957731177986195E-03
    0.14959889072326806522E-02
    0.10636189321753279288E-02
    0.25806495608205170514E-03
    0.14442200266403290576E-01
    0.72596444803677030733E-02
    0.95849766347535676758E-02
    0.10977468407843568587E-01
    0.88593633324858568623E-02
    0.84055568735240480255E-02
    0.15020694986485744887E-01
    0.64606020988695585586E-02
    0.70200227406046538867E-02
    0.12836833550709421392E-01
    0.30442755492156584258E-04
    0.55939839267417851905E-04
    0.17040869945249962117E-03
    0.20247702562597129491E-03
    0.75626707909618861182E-04
    0.36811650522347636025E-04
    0.50436035194557550943E-04
    0.94824786688750504755E-04
    0.29044268701231365113E-03
    0.85407690917080510140E-03
    0.16760448418191615535E-04
    0.84500377000807895279E-05
    0.73619433649582356131E-05
    0.14642341649383972920E-04
    0.29694853084187404908E-04
    0.14781062774393944020E-03
    0.49805775815807808507E-03
