# vtk DataFile Version 3.0
LAPLACIEN  2D
ASCII
DATASET UNSTRUCTURED_GRID
 POINTS         391  float
  0.50371505999999999       0.50367786999999997        0.0000000000000000     
  0.29013556000000001       0.29014535000000002        0.0000000000000000     
  0.70165584999999997       0.71206597999999999        0.0000000000000000     
  0.70304188999999995       0.30176619999999998        0.0000000000000000     
  0.30920671999999999       0.71149227999999998        0.0000000000000000     
  0.79044983999999996       0.49884783999999999        0.0000000000000000     
  0.49102621000000002       0.20968644000000000        0.0000000000000000     
  0.49912957000000002       0.77208717000000004        0.0000000000000000     
  0.21724072999999999       0.48989389000000000        0.0000000000000000     
  0.83255933999999998       0.83046598000000005        0.0000000000000000     
  0.16646774000000000       0.17015694000000001        0.0000000000000000     
  0.83054514999999995       0.16736480000000001        0.0000000000000000     
  0.16953130999999999       0.83265739000000005        0.0000000000000000     
  0.42166445000000002       0.36345201999999999        0.0000000000000000     
  0.64462200999999997       0.56347807999999999        0.0000000000000000     
  0.35324633999999999       0.56311191000000005        0.0000000000000000     
  0.65456411000000003       0.84856860999999995        0.0000000000000000     
  0.35141477999999998       0.15563974000000000        0.0000000000000000     
  0.15290967000000000       0.35206625000000003        0.0000000000000000     
  0.82942241000000005       0.34936866000000000        0.0000000000000000     
  0.84390527000000004       0.64441694999999999        0.0000000000000000     
  0.63699174999999997       0.14284276000000001        0.0000000000000000     
  0.15620682999999999       0.64648446999999998        0.0000000000000000     
  0.36426062999999997       0.85756310999999996        0.0000000000000000     
  0.63489340999999999       0.40519052000000000        0.0000000000000000     
  0.52518872999999999       0.65957078000000002        0.0000000000000000     
  0.32158959999999998       0.42298103999999997        0.0000000000000000     
  0.58861710000000000       0.31711036999999997        0.0000000000000000     
  0.42078418000000001       0.69497151999999995        0.0000000000000000     
  0.48608786999999998       0.89334152000000000        0.0000000000000000     
   9.7084320000000002E-002  0.50000000000000000        0.0000000000000000     
  0.90291568000000000       0.50000000000000000        0.0000000000000000     
  0.51392453000000005       0.10668648999999999        0.0000000000000000     
  0.59792566999999996       0.73122754000000001        0.0000000000000000     
  0.74510058999999995       0.41124730999999998        0.0000000000000000     
  0.73212551999999997       0.90191560000000004        0.0000000000000000     
   9.7784830000000003E-002  0.26957329000000002        0.0000000000000000     
  0.26711221000000002        9.8671499999999995E-002   0.0000000000000000     
  0.90191560000000004       0.26787448000000003        0.0000000000000000     
  0.90118569000000004       0.73039821000000005        0.0000000000000000     
  0.73122947000000005        9.8017859999999998E-002   0.0000000000000000     
   9.8084400000000002E-002  0.73212551999999997        0.0000000000000000     
  0.26957329000000002       0.90221516999999996        0.0000000000000000     
  0.39283522999999998       0.25360379000000000        0.0000000000000000     
  0.74480864000000002       0.60495284999999999        0.0000000000000000     
  0.25505132000000003       0.60593640999999998        0.0000000000000000     
  0.52159297999999998       0.40671636000000000        0.0000000000000000     
  0.40768852000000000       0.47699891000000000        0.0000000000000000     
   9.1467049999999994E-002   9.1876959999999994E-002   0.0000000000000000     
  0.90842484999999995       0.90819225000000003        0.0000000000000000     
  0.90820104999999995        9.1566729999999999E-002   0.0000000000000000     
   9.1807449999999999E-002  0.90843574000000005        0.0000000000000000     
  0.27098960000000000       0.20527094000000001        0.0000000000000000     
  0.73457293999999995       0.79835387000000002        0.0000000000000000     
  0.79817773000000003       0.25713470999999999        0.0000000000000000     
  0.20747797000000001       0.72863946000000002        0.0000000000000000     
  0.20175195000000001       0.27583914999999998        0.0000000000000000     
  0.79603889000000005       0.72159035000000005        0.0000000000000000     
  0.71761666000000002       0.19748431999999999        0.0000000000000000     
  0.28462607000000001       0.80251899999999998        0.0000000000000000     
  0.69134598999999997       0.49261972999999998        0.0000000000000000     
  0.44720578999999999       0.58582935999999997        0.0000000000000000     
  0.24242269999999999       0.37228174000000003        0.0000000000000000     
  0.38265623999999998       0.93072131999999996        0.0000000000000000     
  0.60971754000000000       0.91988369000000003        0.0000000000000000     
   7.9163609999999995E-002  0.60979116000000000        0.0000000000000000     
  0.92010649000000000       0.61081183999999999        0.0000000000000000     
  0.61954008999999999        7.1530830000000004E-002   0.0000000000000000     
  0.91882012999999996       0.38917363999999999        0.0000000000000000     
  0.39086346000000000        8.0652249999999995E-002   0.0000000000000000     
   7.9183480000000001E-002  0.38966213000000000        0.0000000000000000     
  0.59114111999999996       0.49294315000000000        0.0000000000000000     
  0.63337980999999999       0.64485914000000000        0.0000000000000000     
  0.50012352000000004       0.29676539000000002        0.0000000000000000     
  0.82552601000000003       0.92753492000000004        0.0000000000000000     
  0.92774772999999999       0.82498556999999995        0.0000000000000000     
   7.1970870000000006E-002  0.17510291000000000        0.0000000000000000     
  0.17422821999999999        7.2635640000000001E-002   0.0000000000000000     
  0.82510813000000005        7.2134840000000006E-002   0.0000000000000000     
  0.92754665000000003       0.17446275999999999        0.0000000000000000     
  0.17501022999999999       0.92789951999999998        0.0000000000000000     
   7.2464680000000004E-002  0.82554053000000005        0.0000000000000000     
  0.30731587999999999       0.50885354999999999        0.0000000000000000     
  0.59033407999999998       0.22171178999999999        0.0000000000000000     
  0.40109191999999999       0.78725542000000004        0.0000000000000000     
  0.35420917000000002       0.63754104000000000        0.0000000000000000     
  0.15983976999999999       0.56665573000000002        0.0000000000000000     
  0.84108459999999996       0.56757886999999996        0.0000000000000000     
  0.83902096000000004       0.43344338999999998        0.0000000000000000     
  0.43230028999999998       0.16004268999999999        0.0000000000000000     
  0.57536027999999995       0.83041363999999995        0.0000000000000000     
  0.15771898000000001       0.42747892999999998        0.0000000000000000     
  0.34021692999999997       0.34221559000000001        0.0000000000000000     
  0.56002271999999997       0.57501117999999996        0.0000000000000000     
  0.65344329000000001       0.78147597999999996        0.0000000000000000     
   0.0000000000000000        0.0000000000000000        0.0000000000000000     
   1.0000000000000000        0.0000000000000000        0.0000000000000000     
   1.0000000000000000        1.0000000000000000        0.0000000000000000     
   0.0000000000000000        1.0000000000000000        0.0000000000000000     
  0.11111111000000000        0.0000000000000000        0.0000000000000000     
  0.22222222000000000        0.0000000000000000        0.0000000000000000     
  0.33333332999999998        0.0000000000000000        0.0000000000000000     
  0.44444444000000000        0.0000000000000000        0.0000000000000000     
  0.55555555999999995        0.0000000000000000        0.0000000000000000     
  0.66666667000000002        0.0000000000000000        0.0000000000000000     
  0.77777777999999997        0.0000000000000000        0.0000000000000000     
  0.88888889000000004        0.0000000000000000        0.0000000000000000     
   1.0000000000000000       0.11111111000000000        0.0000000000000000     
   1.0000000000000000       0.22222222000000000        0.0000000000000000     
   1.0000000000000000       0.33333332999999998        0.0000000000000000     
   1.0000000000000000       0.44444444000000000        0.0000000000000000     
   1.0000000000000000       0.55555555999999995        0.0000000000000000     
   1.0000000000000000       0.66666667000000002        0.0000000000000000     
   1.0000000000000000       0.77777777999999997        0.0000000000000000     
   1.0000000000000000       0.88888889000000004        0.0000000000000000     
  0.88888889000000004        1.0000000000000000        0.0000000000000000     
  0.77777777999999997        1.0000000000000000        0.0000000000000000     
  0.66666667000000002        1.0000000000000000        0.0000000000000000     
  0.55555555999999995        1.0000000000000000        0.0000000000000000     
  0.44444444000000000        1.0000000000000000        0.0000000000000000     
  0.33333332999999998        1.0000000000000000        0.0000000000000000     
  0.22222222000000000        1.0000000000000000        0.0000000000000000     
  0.11111111000000000        1.0000000000000000        0.0000000000000000     
   0.0000000000000000       0.11111111000000000        0.0000000000000000     
   0.0000000000000000       0.22222222000000000        0.0000000000000000     
[...]
 CELL_DATA         354
 SCALARS U float
 LOOKUP_TABLE default
    0.31947863457014127886E-01
    0.89479706854422136342E-01
    0.95811244385292010373E-01
    0.25012453598776018815E+00
    0.39212250120716662938E-01
    0.65848671170730038726E-01
    0.15871920170319742116E+00
    0.65311239424839712120E-01
    0.29870083330397323440E+00
    0.38362486770806225600E+00
    0.53890044998350583594E+00
    0.50417620049404088256E+00
    0.60361866562558852412E+00
    0.63287835357137456338E+00
    0.59507789640740649251E+00
    0.60611094223511452483E+00
    0.44906513490084010165E+00
    0.32367506061340289847E+00
    0.13787999685417506868E+00
    0.21199299278775465827E+00
    0.89652630830740806522E-01
    0.87140562015219191760E-01
    0.17835504837547389023E+00
    0.12142581238704928948E+00
    0.18270485118902046739E+00
    0.16487225981668035546E+00
    0.13153434681226006120E+00
    0.15030167869828287008E+00
    0.10628837760810816437E+00
    0.56299300349034173130E-01
    0.36783622878262839384E-01
    0.55601652485966594763E-01
    0.41798035909878149263E-01
    0.30384491122531345764E-01
    0.49406986409689053474E-01
    0.44786973618124316376E-01
    0.73901820533879031272E-01
    0.46675208867387782408E-01
    0.27349356399597509609E-01
    0.27585170698365822639E-01
    0.20600880770069843195E-01
    0.21694349735165999182E-01
    0.21615805688106257826E-01
    0.21384205974187667915E-01
    0.24146448499319399239E-01
    0.15248730592175147730E-01
    0.27234326335606649783E-01
    0.20383619866750097432E-01
    0.55087415103980019726E-01
    0.10745536615322612284E+00
    0.19687926726794180432E+00
    0.13167453654155653053E+00
    0.28945058357189155929E-01
    0.13817354394592244737E-01
    0.28338028531469716675E-01
    0.13166085039914978555E-01
    0.28049494006622831960E-01
    0.24955352663150107834E-01
    0.31115703597749372333E-01
    0.25131246302673677234E-01
    0.31749309990987267804E-01
    0.24029228827989027734E-01
    0.22670759725729492523E-01
    0.25784167522144865736E-01
    0.43179515638588412962E-01
    0.56128672516987790364E-01
    0.89217433115760164108E-01
    0.81706474928706376848E-01
    0.75622270531350255229E+00
    0.84312698301981947591E+00
    0.85173327736202619764E+00
    0.82074915531756964526E+00
    0.85269339940270194589E+00
    0.80101909815815619531E+00
    0.81382579463938142794E+00
    0.81841464937965713311E+00
    0.81518788407459996659E+00
    0.83587958030480469240E+00
    0.61365815558784153616E+00
    0.72536274986896365213E+00
    0.24085516447591243105E+00
    0.45014984954414538620E+00
    0.77939593639086401922E+00
    0.35490343609839747341E+00
    0.71436177772930586904E+00
    0.24617450992530984233E+00
    0.88425461454331208411E-01
    0.53201566489926865877E+00
    0.63417456124792903616E+00
    0.38403926194728560395E+00
    0.15621794619624890244E+00
    0.40146869213045549563E+00
    0.48317535413696621749E+00
    0.18579853459353515288E+00
    0.12019182788368969195E+00
    0.13574292139357069242E+00
    0.64700546693364491269E+00
    0.75499448238729860439E+00
    0.82396218061857617876E+00
    0.82724735456652787047E+00
    0.84086666416268074364E+00
    0.79754679221921409571E+00
    0.82406134888206472588E+00
    0.53214877332545684752E+00
    0.50839900687808792235E+00
    0.21853720592890796270E+00
    0.24514943223508342540E+00
    0.69863824009859631925E+00
    0.67027864873448739225E+00
    0.51758238079105500784E+00
    0.11808242274786090453E+00
    0.39156630974555672875E+00
    0.18910430568595043566E+00
    0.17002775448273266257E+00
    0.80052980794906336559E+00
    0.23999646154481907301E+00
    0.58230543526725175862E+00
    0.76252473358388672686E+00
    0.79558163032592921216E+00
    0.27882090695051420237E+00
    0.51947466048625379198E+00
    0.47855724817933091575E-01
    0.66228423236448757949E-01
    0.57656369148056281493E-01
    0.95744494341377869850E-01
    0.11673521515683858707E+00
    0.48526266761948134987E-01
    0.54311508389214405157E-01
    0.14317609542355774765E+00
    0.51299099651358737173E+00
    0.11281495015125446446E+00
    0.69592307560087918183E+00
    0.47905511365995995243E+00
    0.97506671528320529307E-01
    0.19733992699517444169E+00
    0.77045543254191750648E+00
    0.83312322328675525451E+00
    0.54322594478767771697E+00
    0.84362971831706923265E+00
    0.81236660325006393446E+00
    0.77401646041367500040E+00
    0.53763788397691159027E+00
    0.37025540221748386160E-01
    0.33028001077304879052E-01
    0.35630110424704271310E-01
    0.57246914425931896830E-01
    0.41585900785913211541E-01
    0.32851969507561452899E-01
    0.33361681219204637749E-01
    0.80831328852424721987E+00
    0.73664274736616974781E+00
    0.43446117997983757508E+00
    0.73395454268094928452E+00
    0.38032008642292258749E+00
    0.80944178481488160415E+00
    0.83675144146401359002E+00
    0.84763828857940271000E+00
    0.83017589930672563980E+00
    0.85790752881312304368E+00
    0.83654238188276841548E+00
    0.76926012258405351840E+00
    0.78653050026276927209E+00
    0.82798403012706589532E+00
    0.79076052439898258939E+00
    0.82526760734371806816E+00
    0.67329052649604301251E-01
    0.11553765739165448856E+00
    0.67739372111865883697E-01
    0.10547674312543917075E+00
    0.11572618283257532501E+00
    0.81472664671981731566E+00
    0.82687435322528513026E+00
    0.84650505618784355200E+00
    0.83637585143879644711E+00
    0.84385283244652997681E+00
    0.18842907487553708923E+00
    0.54551351822531468638E+00
    0.55566121867095463749E+00
    0.13257219454240556922E+00
    0.27353430217006124980E+00
    0.82097522127847555318E+00
    0.77338126711364996169E+00
    0.84277249704414280984E+00
    0.75255803728043191292E+00
    0.84293271559615878807E+00
    0.17805696783609906153E+00
    0.63921973165935075389E+00
    0.32709171640302703299E+00
    0.31450993892789941286E+00
    0.63208832381946611356E+00
    0.79745850524851669139E+00
    0.82945002864730876802E+00
    0.67552949809623330513E+00
    0.86442585829527718300E+00
    0.53657004536219776725E+00
    0.68594138583618055605E-01
    0.17292158655369924136E+00
    0.88945301216159344815E-01
    0.72634493993114224164E-01
    0.10287280496025653920E+00
    0.33814762961503014305E-01
    0.33614397607801146939E-01
    0.41380837214191078244E-01
    0.26229798853949798376E-01
    0.44481175413338278068E-01
    0.11382916154994120184E+00
    0.55824849554685873620E+00
    0.27906726138531046111E+00
    0.72232030862407503591E+00
    0.56243085014258276111E+00
    0.77373650189555731593E+00
    0.68901619550197568120E+00
    0.83341644565445827109E+00
    0.84283127172844385377E+00
    0.84444485965027538121E+00
    0.83191534355571361559E+00
    0.81309166787984166191E+00
    0.83560094836990450595E+00
    0.80601500516405577557E+00
    0.11252890746883446871E+00
    0.51366509732853289638E-01
    0.69074456503562142728E-01
    0.77522116258049855730E+00
    0.23883241126844570457E+00
    0.69372723399394242705E+00
    0.30637872684965102021E-01
    0.39007892321941073366E-01
    0.50402074233572763395E-01
    0.76363978062355397647E-01
    0.54227998771960266022E-01
    0.55520794434214107427E-01
    0.83733789284179460655E-01
    0.18667381803066107615E+00
    0.29651524447063165590E+00
    0.44609123847752585323E+00
    0.61937937186804303824E+00
    0.71966048110836156049E+00
    0.85056319465367258292E+00
    0.79247404919125097322E+00
    0.44382233013698124680E+00
    0.77802458681435326948E+00
    0.77214589972706448862E+00
    0.19097760084753317988E+00
    0.34506910651295269465E+00
    0.81872563834106160119E+00
    0.82824297692653869873E+00
    0.85303286730829347428E-01
    0.37763119077425355563E-01
    0.37750149300841299993E-01
    0.28007711174833727075E+00
    0.52610913247951876515E-01
    0.40515492632393179662E-01
    0.79711129663884172647E+00
    0.69703912041719295889E+00
    0.25857850308972424314E+00
    0.81029241950664898653E+00
    0.51293635440068485742E+00
    0.46521118955489049185E+00
    0.12945349898484612150E+00
    0.98597143080493068745E-01
    0.59948168181440546209E-01
    0.80911675651040015911E+00
    0.84729756178687232193E+00
    0.69620372999308444140E+00
    0.61916015879835840929E-01
    0.43963677404811947469E-01
    0.39721648946273988012E-01
    0.43122692369836353177E-01
    0.29220194595223701606E-01
    0.33639759545294321830E-01
    0.80195239718816524466E+00
    0.37996252046673367753E+00
    0.76482607840362304419E+00
    0.82638077475868865207E+00
    0.57209740134936426514E+00
    0.82724367380543728512E+00
    0.84272358976794525809E+00
    0.78658911718557034121E+00
    0.21554153084759214432E+00
    0.77214014346078352347E+00
    0.75219570663588197768E+00
    0.25907114575682338442E+00
    0.66224056395055019841E+00
    0.56609958179343267126E+00
    0.16497395217149954383E+00
    0.83221430967110321397E+00
    0.79466189393178576772E+00
    0.40483677940803763917E-01
    0.82320871124666059049E-01
    0.51343912345317641033E-01
    0.53246160581512706755E-01
    0.48014600120892692026E+00
    0.23611517896254355375E+00
    0.33932019678903711790E-01
    0.34537099195056555900E-01
    0.78428707886898396673E+00
    0.20040818149491898548E+00
    0.15080294148844683444E+00
    0.71660604767933688830E+00
    0.66900445558723681261E-01
    0.78080426050951035055E+00
    0.32236896500780504171E+00
    0.56396382131917874303E-01
    0.81580506395330210090E+00
    0.81278973274163235363E+00
    0.85035527343039296611E+00
    0.54285555205481972330E+00
    0.80972707415344091775E+00
    0.76294700016659833253E-01
    0.77583711153355772172E-01
    0.46374031515189495511E+00
    0.73701381039331415046E+00
    0.82755744759349647577E+00
    0.11847683133535451272E+00
    0.82367827005124627515E+00
    0.85779491644327476862E+00
    0.11841808729309855064E+00
    0.13533737324183625628E+00
    0.23289004140752533195E-01
    0.79555854331149720993E-02
    0.28782352323826601581E-01
    0.93439407842313693120E-02
    0.98316717943627576770E-01
    0.12165957009957885371E+00
    0.34536774389524971252E+00
    0.23070334986937307553E+00
    0.32758876016988368318E-01
    0.42683030509729567858E-01
    0.17144640888727125105E+00
    0.33657534202898242714E+00
    0.35348389272553104590E+00
    0.26136704249922776411E+00
    0.90470058069900161080E-01
    0.10079677746718331693E-01
    0.98469852603613374636E-02
    0.68978600382625593693E-02
    0.48583464486399831686E-02
    0.38192538666304912121E-02
    0.10181178255565574708E-01
    0.35596537605423105022E-01
    0.45021409301979641027E-01
    0.15216516239228171370E-01
    0.64509734621191203510E-02
    0.94553170076243052422E-02
    0.19771224414813683840E-01
    0.67102777553970954783E-01
    0.19864849912910753638E+00
    0.24884436503431260450E-02
    0.10922929170490509789E-02
    0.92542177421242274339E-03
    0.21237317802048696902E-02
    0.49328420454928930891E-02
    0.32408629990163542733E-01
    0.11686499782304163308E+00
