# vtk DataFile Version 3.0
LAPLACIEN  2D
ASCII
DATASET UNSTRUCTURED_GRID
 POINTS         391  float
  0.50371505999999999       0.50367786999999997        0.0000000000000000     
  0.29013556000000001       0.29014535000000002        0.0000000000000000     
  0.70165584999999997       0.71206597999999999        0.0000000000000000     
  0.70304188999999995       0.30176619999999998        0.0000000000000000     
  0.30920671999999999       0.71149227999999998        0.0000000000000000     
  0.79044983999999996       0.49884783999999999        0.0000000000000000     
  0.49102621000000002       0.20968644000000000        0.0000000000000000     
  0.49912957000000002       0.77208717000000004        0.0000000000000000     
  0.21724072999999999       0.48989389000000000        0.0000000000000000     
  0.83255933999999998       0.83046598000000005        0.0000000000000000     
  0.16646774000000000       0.17015694000000001        0.0000000000000000     
  0.83054514999999995       0.16736480000000001        0.0000000000000000     
  0.16953130999999999       0.83265739000000005        0.0000000000000000     
  0.42166445000000002       0.36345201999999999        0.0000000000000000     
  0.64462200999999997       0.56347807999999999        0.0000000000000000     
  0.35324633999999999       0.56311191000000005        0.0000000000000000     
  0.65456411000000003       0.84856860999999995        0.0000000000000000     
  0.35141477999999998       0.15563974000000000        0.0000000000000000     
  0.15290967000000000       0.35206625000000003        0.0000000000000000     
  0.82942241000000005       0.34936866000000000        0.0000000000000000     
  0.84390527000000004       0.64441694999999999        0.0000000000000000     
  0.63699174999999997       0.14284276000000001        0.0000000000000000     
  0.15620682999999999       0.64648446999999998        0.0000000000000000     
  0.36426062999999997       0.85756310999999996        0.0000000000000000     
  0.63489340999999999       0.40519052000000000        0.0000000000000000     
  0.52518872999999999       0.65957078000000002        0.0000000000000000     
  0.32158959999999998       0.42298103999999997        0.0000000000000000     
  0.58861710000000000       0.31711036999999997        0.0000000000000000     
  0.42078418000000001       0.69497151999999995        0.0000000000000000     
  0.48608786999999998       0.89334152000000000        0.0000000000000000     
   9.7084320000000002E-002  0.50000000000000000        0.0000000000000000     
  0.90291568000000000       0.50000000000000000        0.0000000000000000     
  0.51392453000000005       0.10668648999999999        0.0000000000000000     
  0.59792566999999996       0.73122754000000001        0.0000000000000000     
  0.74510058999999995       0.41124730999999998        0.0000000000000000     
  0.73212551999999997       0.90191560000000004        0.0000000000000000     
   9.7784830000000003E-002  0.26957329000000002        0.0000000000000000     
  0.26711221000000002        9.8671499999999995E-002   0.0000000000000000     
  0.90191560000000004       0.26787448000000003        0.0000000000000000     
  0.90118569000000004       0.73039821000000005        0.0000000000000000     
  0.73122947000000005        9.8017859999999998E-002   0.0000000000000000     
   9.8084400000000002E-002  0.73212551999999997        0.0000000000000000     
  0.26957329000000002       0.90221516999999996        0.0000000000000000     
  0.39283522999999998       0.25360379000000000        0.0000000000000000     
  0.74480864000000002       0.60495284999999999        0.0000000000000000     
  0.25505132000000003       0.60593640999999998        0.0000000000000000     
  0.52159297999999998       0.40671636000000000        0.0000000000000000     
  0.40768852000000000       0.47699891000000000        0.0000000000000000     
   9.1467049999999994E-002   9.1876959999999994E-002   0.0000000000000000     
  0.90842484999999995       0.90819225000000003        0.0000000000000000     
  0.90820104999999995        9.1566729999999999E-002   0.0000000000000000     
   9.1807449999999999E-002  0.90843574000000005        0.0000000000000000     
  0.27098960000000000       0.20527094000000001        0.0000000000000000     
  0.73457293999999995       0.79835387000000002        0.0000000000000000     
  0.79817773000000003       0.25713470999999999        0.0000000000000000     
  0.20747797000000001       0.72863946000000002        0.0000000000000000     
  0.20175195000000001       0.27583914999999998        0.0000000000000000     
  0.79603889000000005       0.72159035000000005        0.0000000000000000     
  0.71761666000000002       0.19748431999999999        0.0000000000000000     
  0.28462607000000001       0.80251899999999998        0.0000000000000000     
  0.69134598999999997       0.49261972999999998        0.0000000000000000     
  0.44720578999999999       0.58582935999999997        0.0000000000000000     
  0.24242269999999999       0.37228174000000003        0.0000000000000000     
  0.38265623999999998       0.93072131999999996        0.0000000000000000     
  0.60971754000000000       0.91988369000000003        0.0000000000000000     
   7.9163609999999995E-002  0.60979116000000000        0.0000000000000000     
  0.92010649000000000       0.61081183999999999        0.0000000000000000     
  0.61954008999999999        7.1530830000000004E-002   0.0000000000000000     
  0.91882012999999996       0.38917363999999999        0.0000000000000000     
  0.39086346000000000        8.0652249999999995E-002   0.0000000000000000     
   7.9183480000000001E-002  0.38966213000000000        0.0000000000000000     
  0.59114111999999996       0.49294315000000000        0.0000000000000000     
  0.63337980999999999       0.64485914000000000        0.0000000000000000     
  0.50012352000000004       0.29676539000000002        0.0000000000000000     
  0.82552601000000003       0.92753492000000004        0.0000000000000000     
  0.92774772999999999       0.82498556999999995        0.0000000000000000     
   7.1970870000000006E-002  0.17510291000000000        0.0000000000000000     
  0.17422821999999999        7.2635640000000001E-002   0.0000000000000000     
  0.82510813000000005        7.2134840000000006E-002   0.0000000000000000     
  0.92754665000000003       0.17446275999999999        0.0000000000000000     
  0.17501022999999999       0.92789951999999998        0.0000000000000000     
   7.2464680000000004E-002  0.82554053000000005        0.0000000000000000     
  0.30731587999999999       0.50885354999999999        0.0000000000000000     
  0.59033407999999998       0.22171178999999999        0.0000000000000000     
  0.40109191999999999       0.78725542000000004        0.0000000000000000     
  0.35420917000000002       0.63754104000000000        0.0000000000000000     
  0.15983976999999999       0.56665573000000002        0.0000000000000000     
  0.84108459999999996       0.56757886999999996        0.0000000000000000     
  0.83902096000000004       0.43344338999999998        0.0000000000000000     
  0.43230028999999998       0.16004268999999999        0.0000000000000000     
  0.57536027999999995       0.83041363999999995        0.0000000000000000     
  0.15771898000000001       0.42747892999999998        0.0000000000000000     
  0.34021692999999997       0.34221559000000001        0.0000000000000000     
  0.56002271999999997       0.57501117999999996        0.0000000000000000     
  0.65344329000000001       0.78147597999999996        0.0000000000000000     
   0.0000000000000000        0.0000000000000000        0.0000000000000000     
   1.0000000000000000        0.0000000000000000        0.0000000000000000     
   1.0000000000000000        1.0000000000000000        0.0000000000000000     
   0.0000000000000000        1.0000000000000000        0.0000000000000000     
  0.11111111000000000        0.0000000000000000        0.0000000000000000     
  0.22222222000000000        0.0000000000000000        0.0000000000000000     
  0.33333332999999998        0.0000000000000000        0.0000000000000000     
  0.44444444000000000        0.0000000000000000        0.0000000000000000     
  0.55555555999999995        0.0000000000000000        0.0000000000000000     
  0.66666667000000002        0.0000000000000000        0.0000000000000000     
  0.77777777999999997        0.0000000000000000        0.0000000000000000     
  0.88888889000000004        0.0000000000000000        0.0000000000000000     
   1.0000000000000000       0.11111111000000000        0.0000000000000000     
   1.0000000000000000       0.22222222000000000        0.0000000000000000     
   1.0000000000000000       0.33333332999999998        0.0000000000000000     
   1.0000000000000000       0.44444444000000000        0.0000000000000000     
   1.0000000000000000       0.55555555999999995        0.0000000000000000     
   1.0000000000000000       0.66666667000000002        0.0000000000000000     
   1.0000000000000000       0.77777777999999997        0.0000000000000000     
   1.0000000000000000       0.88888889000000004        0.0000000000000000     
  0.88888889000000004        1.0000000000000000        0.0000000000000000     
  0.77777777999999997        1.0000000000000000        0.0000000000000000     
  0.66666667000000002        1.0000000000000000        0.0000000000000000     
  0.55555555999999995        1.0000000000000000        0.0000000000000000     
  0.44444444000000000        1.0000000000000000        0.0000000000000000     
  0.33333332999999998        1.0000000000000000        0.0000000000000000     
  0.22222222000000000        1.0000000000000000        0.0000000000000000     
  0.11111111000000000        1.0000000000000000        0.0000000000000000     
   0.0000000000000000       0.11111111000000000        0.0000000000000000     
   0.0000000000000000       0.22222222000000000        0.0000000000000000     
[...]
 CELL_DATA         354
 SCALARS U float
 LOOKUP_TABLE default
    0.11956552797943345958E-03
    0.24486523224091730905E-01
    0.36971084146517573226E-03
    0.10371387913327037404E-02
    0.14952898899695359612E-03
    0.45274235104370187536E-03
    0.29038011683577634459E-01
    0.14877420211228275029E-01
    0.21203815486817531588E-01
    0.14204349787679499545E-01
    0.10447898984210066478E-01
    0.11596015230046764072E-01
    0.13528408021482380558E-01
    0.14052660560864824874E-01
    0.13737405064145656944E-01
    0.12650617202041395185E-01
    0.12904926471174390026E-01
    0.13208691253972714222E-01
    0.17667755541576860012E-01
    0.16051556679520410237E-01
    0.25595924183130419616E-01
    0.25197095287459191082E-01
    0.17628872276211231263E-01
    0.23863124656102130405E-01
    0.16409692804295130525E-01
    0.15728356483989472392E-01
    0.21054516600558251249E-01
    0.15278605658538741557E-01
    0.24749881042544039089E-01
    0.11611097239102469506E-01
    0.13947432646706003695E-03
    0.18844812409074575819E-03
    0.16142337624440016713E-03
    0.12939853309249985504E-03
    0.21696018765185958290E-03
    0.19006295683652752880E-03
    0.27273523972921257918E-03
    0.19015923066486212266E-03
    0.11249193710454666176E-03
    0.11536106057922206763E-03
    0.84826728084520480028E-04
    0.86666486634480447066E-04
    0.87291520791729038608E-04
    0.85326658995473955976E-04
    0.97930841680039676400E-04
    0.65521485885991785549E-04
    0.11366445965626347902E-03
    0.84819714627206249332E-04
    0.22155105276858513570E-03
    0.42754125521607633199E-03
    0.77585407099779236419E-03
    0.52887582020971302208E-03
    0.10668677743286340788E-03
    0.56063313103350384168E-04
    0.10988366841917513036E-03
    0.52854144368230036562E-04
    0.10825600471967266594E-03
    0.91592099072409808246E-04
    0.11155583883881965235E-03
    0.92589173212491310554E-04
    0.11480435070790216614E-03
    0.92245211143173375091E-04
    0.95852682077507582524E-04
    0.10059353760354680738E-03
    0.17678938700592457148E-03
    0.21578661766159397384E-03
    0.40210491710183785593E-03
    0.32072358482009455816E-03
    0.12061244978842092929E-01
    0.14270205864087377387E-01
    0.96123722310359031862E-02
    0.12707927346782589562E-01
    0.10452559750704084121E-01
    0.10115675471237874430E-01
    0.87029023670889844172E-02
    0.87553562622058357656E-02
    0.96694233333413492221E-02
    0.12313747507049450924E-01
    0.18703904175997126957E-01
    0.20595331472895814229E-01
    0.39508403422928214249E-02
    0.15266444955485495086E-01
    0.15006555965832680741E-01
    0.12837588279892311188E-01
    0.10430401188256990461E-01
    0.25550493703011663282E-01
    0.25267887941225593285E-01
    0.16327158738321165959E-01
    0.11453046794494303393E-01
    0.30101843188240891280E-01
    0.32771180865457966158E-01
    0.95539628205936581729E-02
    0.14034898795506260336E-01
    0.46016105683132057505E-03
    0.38845890985996097376E-03
    0.48918838261475324110E-03
    0.22882672668594630783E-01
    0.86956392718370127681E-02
    0.99272834309150747439E-02
    0.89870525452946572326E-02
    0.10887230886085215095E-01
    0.91841666739452352403E-02
    0.98789749081330691799E-02
    0.23468192408008341221E-01
    0.20498915550122377705E-01
    0.23607287552571624978E-01
    0.26560381654728758283E-01
    0.18190667370958590876E-01
    0.25753146127705857371E-01
    0.14083079054545446368E-01
    0.37253730594329341908E-03
    0.14468535548101969443E-01
    0.31350653132738181585E-02
    0.16997742801310655129E-02
    0.14013503940064623438E-01
    0.96742814132212712891E-02
    0.19839721864710935934E-01
    0.12590013399816309125E-01
    0.14429004539077991062E-01
    0.12122231642566708848E-01
    0.15100242149232043221E-01
    0.19485452348358758834E-03
    0.26056846187290551168E-03
    0.23879442793920167094E-03
    0.34599399322384144853E-03
    0.39677320619701286460E-03
    0.19888314552928167264E-03
    0.22349512134043508262E-03
    0.10263359511180894165E-01
    0.18722204167356936572E-01
    0.34555006141727909880E-02
    0.12708684706347608481E-01
    0.15234701939261924980E-01
    0.34459486910640190534E-03
    0.14651032931045462546E-01
    0.88655487661349705736E-02
    0.13401103628879812088E-01
    0.11391371401569682850E-01
    0.10842276716362123784E-01
    0.10604377924011960596E-01
    0.12676018817109257694E-01
    0.10338907730245601446E-01
    0.15611096916067930258E-03
    0.14165254567955794110E-03
    0.15289296645258388134E-03
    0.22461550779966492374E-03
    0.17240925810317993738E-03
    0.14138067434959963051E-03
    0.14321472493711274142E-03
    0.99916235836871921533E-02
    0.18374039975174494971E-01
    0.20414480016920130701E-01
    0.12667919191751590008E-01
    0.23329370197011613935E-01
    0.14894815891828245419E-01
    0.92847200986806779910E-02
    0.11027323071225062640E-01
    0.99603223104349526695E-02
    0.91029951254099836233E-02
    0.10586013175576969650E-01
    0.11589129540278582386E-01
    0.10531435362596557395E-01
    0.93912325871929151766E-02
    0.87514546036878294172E-02
    0.11365811406243452042E-01
    0.24074568669432669962E-03
    0.39172424901238528860E-03
    0.23896251397636080068E-03
    0.35744119752247657373E-03
    0.42105399982350036770E-03
    0.12632085450900297496E-01
    0.11440915069611926752E-01
    0.95050667562468528493E-02
    0.16142915629706565406E-01
    0.13734381213235363761E-01
    0.15036864651887426464E-01
    0.22210436730315440135E-01
    0.10843309377965694093E-01
    0.84852060338748338392E-02
    0.10258046438466176392E-01
    0.11780827848373585584E-01
    0.95378223544521807675E-02
    0.12943871867267085427E-01
    0.84913013158797109869E-02
    0.97503382186322345992E-02
    0.21697769494905022776E-02
    0.20759069582581168856E-01
    0.11217138010378853788E-01
    0.89719685180574184485E-02
    0.18479255229348019729E-01
    0.24331389233746742590E-01
    0.17048280991855485622E-01
    0.19727317525201147619E-01
    0.18635131849274896160E-01
    0.21000933268431595802E-01
    0.25855420728273538749E-03
    0.61559469764873686430E-03
    0.32694475732174130755E-03
    0.26745735091471847756E-03
    0.38542346239865926498E-03
    0.13765408402488044440E-03
    0.14441360386717330775E-03
    0.17090330472404642462E-03
    0.11138212248293334009E-03
    0.17689143280985483416E-03
    0.31669941425997071016E-01
    0.16945988946100082329E-01
    0.28762610191706505791E-01
    0.11114198535910066803E-01
    0.19289434789643032653E-01
    0.17860350787840248432E-01
    0.21161160969481535021E-01
    0.11307724021110049373E-01
    0.12166469384525140096E-01
    0.98827946208237572867E-02
    0.12213642127831261450E-01
    0.12382507405964998659E-01
    0.12300573015800184487E-01
    0.12486150030044365980E-01
    0.28576172074452545202E-01
    0.37735759512783448311E-01
    0.35145453203355235539E-01
    0.12024788829602738732E-01
    0.33891981801304135735E-02
    0.13451250853783252096E-01
    0.12418887603510655494E-03
    0.15303691201963876846E-03
    0.19808438742360213384E-03
    0.26971019370744726308E-03
    0.19868652371049169572E-03
    0.20225044999732944831E-03
    0.34154305448912033452E-03
    0.94590502628247984801E-02
    0.19290046841909987835E-01
    0.12465306539039842926E-01
    0.11027888374928428161E-01
    0.78973562910468319415E-02
    0.20250245789065219465E-01
    0.13509259615736434954E-01
    0.26885574875928790195E-01
    0.17927857350864821739E-01
    0.14449346330608597855E-01
    0.18822051667956381411E-02
    0.12803320130140162514E-01
    0.12572720482346656443E-01
    0.86797227710329067502E-02
    0.30178024733355036978E-03
    0.14988592822319038726E-03
    0.15535866543840310956E-03
    0.25339406806352098023E-01
    0.53957367311692982191E-03
    0.16745769031563631133E-03
    0.11339640055900544399E-01
    0.16602496968265795241E-01
    0.27268239672285705943E-01
    0.87677836998483870551E-02
    0.13772114762439944743E-01
    0.14663851541751548452E-01
    0.15071920271480085309E-02
    0.84272500989066457394E-03
    0.23322604680632417649E-03
    0.15510774296572098219E-01
    0.16657413046539393253E-01
    0.13678972881658153782E-01
    0.24165662064038251670E-03
    0.17474090113080322081E-03
    0.16818932536394153032E-03
    0.17845689966776944173E-03
    0.12460484865446208157E-03
    0.14556236293916007592E-03
    0.75639352876987033317E-02
    0.19902383211739850533E-01
    0.17132107542318697480E-01
    0.15660007213791338893E-01
    0.23439675221071029632E-01
    0.85422424040019692693E-02
    0.12590730691748572984E-01
    0.13782708533799915146E-01
    0.59857801497828358808E-03
    0.12662019652310221515E-01
    0.20499405662185762877E-01
    0.12070825890373790626E-01
    0.12552160210154508085E-01
    0.20236090573165999018E-01
    0.26344363543232864056E-01
    0.11301031207147694407E-01
    0.10254850250669335365E-01
    0.15069777010449968493E-03
    0.33711896232073313567E-02
    0.21453190111207345110E-03
    0.22614822065051217478E-03
    0.13668461330515278146E-01
    0.15860486055889466694E-01
    0.14720604011554837471E-03
    0.15094453720527413096E-03
    0.86881859945127509759E-02
    0.37225919333094929786E-02
    0.57056836940805170412E-03
    0.12915462960461860167E-01
    0.26004958246834334983E-03
    0.11792095028394280684E-01
    0.34372018975206822256E-01
    0.22333427191960532202E-03
    0.12470329845615147832E-01
    0.98857518456250126349E-02
    0.10068851812442897870E-01
    0.95878752655641618502E-02
    0.96630216155971539183E-02
    0.26839947526495564877E-03
    0.28128804833874748205E-03
    0.16083666573303699587E-01
    0.78146333298475586376E-02
    0.13634811443059009772E-01
    0.80742217807900622945E-02
    0.99820522254331564560E-02
    0.94939731367367410225E-02
    0.39349463522184602304E-01
    0.48922594270726417216E-03
    0.10155134545908428936E-03
    0.38058985046117089948E-04
    0.96909472210830027022E-02
    0.14567566556068145198E-01
    0.40610450817215790458E-03
    0.45955726279699432146E-03
    0.13845742821152070244E-02
    0.98154949552677322328E-03
    0.35187548295289721193E-03
    0.13804436860659439340E-01
    0.66313290110216766698E-02
    0.90687630298947365104E-02
    0.10386960530738585662E-01
    0.82098446080838358846E-02
    0.74109764548947448110E-02
    0.13194607455847251129E-01
    0.57647680475077407725E-02
    0.60009365214358295279E-02
    0.12043604585441061369E-01
    0.26177416500059908530E-04
    0.48520606297110013870E-04
    0.15144095623635583166E-03
    0.18064492501768426315E-03
    0.66023079863301140677E-04
    0.31449784020488989625E-04
    0.43500225428342056651E-04
    0.82961883548095141476E-04
    0.26221255488512770337E-03
    0.78381471248247088987E-03
    0.14059990102140782750E-04
    0.69534918156351189188E-05
    0.60401289436853060347E-05
    0.12241155424429887730E-04
    0.25334432515930763381E-04
    0.13184732243284625090E-03
    0.45288085921028263482E-03
