# vtk DataFile Version 3.0
LAPLACIEN  2D
ASCII
DATASET UNSTRUCTURED_GRID
 POINTS         391  float
  0.50371505999999999       0.50367786999999997        0.0000000000000000     
  0.29013556000000001       0.29014535000000002        0.0000000000000000     
  0.70165584999999997       0.71206597999999999        0.0000000000000000     
  0.70304188999999995       0.30176619999999998        0.0000000000000000     
  0.30920671999999999       0.71149227999999998        0.0000000000000000     
  0.79044983999999996       0.49884783999999999        0.0000000000000000     
  0.49102621000000002       0.20968644000000000        0.0000000000000000     
  0.49912957000000002       0.77208717000000004        0.0000000000000000     
  0.21724072999999999       0.48989389000000000        0.0000000000000000     
  0.83255933999999998       0.83046598000000005        0.0000000000000000     
  0.16646774000000000       0.17015694000000001        0.0000000000000000     
  0.83054514999999995       0.16736480000000001        0.0000000000000000     
  0.16953130999999999       0.83265739000000005        0.0000000000000000     
  0.42166445000000002       0.36345201999999999        0.0000000000000000     
  0.64462200999999997       0.56347807999999999        0.0000000000000000     
  0.35324633999999999       0.56311191000000005        0.0000000000000000     
  0.65456411000000003       0.84856860999999995        0.0000000000000000     
  0.35141477999999998       0.15563974000000000        0.0000000000000000     
  0.15290967000000000       0.35206625000000003        0.0000000000000000     
  0.82942241000000005       0.34936866000000000        0.0000000000000000     
  0.84390527000000004       0.64441694999999999        0.0000000000000000     
  0.63699174999999997       0.14284276000000001        0.0000000000000000     
  0.15620682999999999       0.64648446999999998        0.0000000000000000     
  0.36426062999999997       0.85756310999999996        0.0000000000000000     
  0.63489340999999999       0.40519052000000000        0.0000000000000000     
  0.52518872999999999       0.65957078000000002        0.0000000000000000     
  0.32158959999999998       0.42298103999999997        0.0000000000000000     
  0.58861710000000000       0.31711036999999997        0.0000000000000000     
  0.42078418000000001       0.69497151999999995        0.0000000000000000     
  0.48608786999999998       0.89334152000000000        0.0000000000000000     
   9.7084320000000002E-002  0.50000000000000000        0.0000000000000000     
  0.90291568000000000       0.50000000000000000        0.0000000000000000     
  0.51392453000000005       0.10668648999999999        0.0000000000000000     
  0.59792566999999996       0.73122754000000001        0.0000000000000000     
  0.74510058999999995       0.41124730999999998        0.0000000000000000     
  0.73212551999999997       0.90191560000000004        0.0000000000000000     
   9.7784830000000003E-002  0.26957329000000002        0.0000000000000000     
  0.26711221000000002        9.8671499999999995E-002   0.0000000000000000     
  0.90191560000000004       0.26787448000000003        0.0000000000000000     
  0.90118569000000004       0.73039821000000005        0.0000000000000000     
  0.73122947000000005        9.8017859999999998E-002   0.0000000000000000     
   9.8084400000000002E-002  0.73212551999999997        0.0000000000000000     
  0.26957329000000002       0.90221516999999996        0.0000000000000000     
  0.39283522999999998       0.25360379000000000        0.0000000000000000     
  0.74480864000000002       0.60495284999999999        0.0000000000000000     
  0.25505132000000003       0.60593640999999998        0.0000000000000000     
  0.52159297999999998       0.40671636000000000        0.0000000000000000     
  0.40768852000000000       0.47699891000000000        0.0000000000000000     
   9.1467049999999994E-002   9.1876959999999994E-002   0.0000000000000000     
  0.90842484999999995       0.90819225000000003        0.0000000000000000     
  0.90820104999999995        9.1566729999999999E-002   0.0000000000000000     
   9.1807449999999999E-002  0.90843574000000005        0.0000000000000000     
  0.27098960000000000       0.20527094000000001        0.0000000000000000     
  0.73457293999999995       0.79835387000000002        0.0000000000000000     
  0.79817773000000003       0.25713470999999999        0.0000000000000000     
  0.20747797000000001       0.72863946000000002        0.0000000000000000     
  0.20175195000000001       0.27583914999999998        0.0000000000000000     
  0.79603889000000005       0.72159035000000005        0.0000000000000000     
  0.71761666000000002       0.19748431999999999        0.0000000000000000     
  0.28462607000000001       0.80251899999999998        0.0000000000000000     
  0.69134598999999997       0.49261972999999998        0.0000000000000000     
  0.44720578999999999       0.58582935999999997        0.0000000000000000     
  0.24242269999999999       0.37228174000000003        0.0000000000000000     
  0.38265623999999998       0.93072131999999996        0.0000000000000000     
  0.60971754000000000       0.91988369000000003        0.0000000000000000     
   7.9163609999999995E-002  0.60979116000000000        0.0000000000000000     
  0.92010649000000000       0.61081183999999999        0.0000000000000000     
  0.61954008999999999        7.1530830000000004E-002   0.0000000000000000     
  0.91882012999999996       0.38917363999999999        0.0000000000000000     
  0.39086346000000000        8.0652249999999995E-002   0.0000000000000000     
   7.9183480000000001E-002  0.38966213000000000        0.0000000000000000     
  0.59114111999999996       0.49294315000000000        0.0000000000000000     
  0.63337980999999999       0.64485914000000000        0.0000000000000000     
  0.50012352000000004       0.29676539000000002        0.0000000000000000     
  0.82552601000000003       0.92753492000000004        0.0000000000000000     
  0.92774772999999999       0.82498556999999995        0.0000000000000000     
   7.1970870000000006E-002  0.17510291000000000        0.0000000000000000     
  0.17422821999999999        7.2635640000000001E-002   0.0000000000000000     
  0.82510813000000005        7.2134840000000006E-002   0.0000000000000000     
  0.92754665000000003       0.17446275999999999        0.0000000000000000     
  0.17501022999999999       0.92789951999999998        0.0000000000000000     
   7.2464680000000004E-002  0.82554053000000005        0.0000000000000000     
  0.30731587999999999       0.50885354999999999        0.0000000000000000     
  0.59033407999999998       0.22171178999999999        0.0000000000000000     
  0.40109191999999999       0.78725542000000004        0.0000000000000000     
  0.35420917000000002       0.63754104000000000        0.0000000000000000     
  0.15983976999999999       0.56665573000000002        0.0000000000000000     
  0.84108459999999996       0.56757886999999996        0.0000000000000000     
  0.83902096000000004       0.43344338999999998        0.0000000000000000     
  0.43230028999999998       0.16004268999999999        0.0000000000000000     
  0.57536027999999995       0.83041363999999995        0.0000000000000000     
  0.15771898000000001       0.42747892999999998        0.0000000000000000     
  0.34021692999999997       0.34221559000000001        0.0000000000000000     
  0.56002271999999997       0.57501117999999996        0.0000000000000000     
  0.65344329000000001       0.78147597999999996        0.0000000000000000     
   0.0000000000000000        0.0000000000000000        0.0000000000000000     
   1.0000000000000000        0.0000000000000000        0.0000000000000000     
   1.0000000000000000        1.0000000000000000        0.0000000000000000     
   0.0000000000000000        1.0000000000000000        0.0000000000000000     
  0.11111111000000000        0.0000000000000000        0.0000000000000000     
  0.22222222000000000        0.0000000000000000        0.0000000000000000     
  0.33333332999999998        0.0000000000000000        0.0000000000000000     
  0.44444444000000000        0.0000000000000000        0.0000000000000000     
  0.55555555999999995        0.0000000000000000        0.0000000000000000     
  0.66666667000000002        0.0000000000000000        0.0000000000000000     
  0.77777777999999997        0.0000000000000000        0.0000000000000000     
  0.88888889000000004        0.0000000000000000        0.0000000000000000     
   1.0000000000000000       0.11111111000000000        0.0000000000000000     
   1.0000000000000000       0.22222222000000000        0.0000000000000000     
   1.0000000000000000       0.33333332999999998        0.0000000000000000     
   1.0000000000000000       0.44444444000000000        0.0000000000000000     
   1.0000000000000000       0.55555555999999995        0.0000000000000000     
   1.0000000000000000       0.66666667000000002        0.0000000000000000     
   1.0000000000000000       0.77777777999999997        0.0000000000000000     
   1.0000000000000000       0.88888889000000004        0.0000000000000000     
  0.88888889000000004        1.0000000000000000        0.0000000000000000     
  0.77777777999999997        1.0000000000000000        0.0000000000000000     
  0.66666667000000002        1.0000000000000000        0.0000000000000000     
  0.55555555999999995        1.0000000000000000        0.0000000000000000     
  0.44444444000000000        1.0000000000000000        0.0000000000000000     
  0.33333332999999998        1.0000000000000000        0.0000000000000000     
  0.22222222000000000        1.0000000000000000        0.0000000000000000     
  0.11111111000000000        1.0000000000000000        0.0000000000000000     
   0.0000000000000000       0.11111111000000000        0.0000000000000000     
   0.0000000000000000       0.22222222000000000        0.0000000000000000     
[...]
 CELL_DATA         354
 SCALARS U float
 LOOKUP_TABLE default
    0.64536143125099615261E-04
    0.19598676726775930007E-01
    0.22673477141648735751E-03
    0.69054049288602074690E-03
    0.81199813755313397681E-04
    0.93152770839674504597E-03
    0.17031056931040792352E-01
    0.68502337542556456310E-02
    0.15287317492452155362E-01
    0.94265230230640029846E-02
    0.72370427794517348807E-02
    0.78689208105474917065E-02
    0.94888628296191900036E-02
    0.97109953935500085975E-02
    0.95758136349332317189E-02
    0.87808300742429328672E-02
    0.83260577210374827478E-02
    0.74879659446259114186E-02
    0.12197479615696872612E-01
    0.93176692528572219176E-02
    0.21020609965250527940E-01
    0.16496441925780959414E-01
    0.11898305788088552395E-01
    0.14065222945221538681E-01
    0.10855686679170042930E-01
    0.94185821855891638243E-02
    0.14640332673986400369E-01
    0.92944781083922987236E-02
    0.18172962110399204505E-01
    0.89208472347578528922E-02
    0.79176795433388185482E-04
    0.10984363586115364602E-03
    0.90743666609832310905E-04
    0.72528914385045498625E-04
    0.12528698584590638055E-03
    0.10894984668254800969E-03
    0.15821138513673349297E-03
    0.10867051659837117855E-03
    0.60747977304625328800E-04
    0.62535112955038277423E-04
    0.46007980885874479157E-04
    0.45915603754590122250E-04
    0.47008403081831707626E-04
    0.45240210170207437060E-04
    0.52444388536705949906E-04
    0.33684931791245722359E-04
    0.62113117862773705911E-04
    0.44431602307278388335E-04
    0.13214006918853306847E-03
    0.26905938844900406919E-03
    0.51216075542822106503E-03
    0.34129441568590975463E-03
    0.57922014402770546644E-04
    0.27537483669411532794E-04
    0.61185030726451173147E-04
    0.26027533201249002158E-04
    0.60526078062981307157E-04
    0.49188325219766858493E-04
    0.61300777507805140364E-04
    0.49590982260030662236E-04
    0.62752811159466227579E-04
    0.49778616357440810868E-04
    0.53438380304488474967E-04
    0.54206579359082568490E-04
    0.10151384845247468864E-03
    0.12336453827925192100E-03
    0.25018605368028233940E-03
    0.19717371077813383696E-03
    0.78944724282359220180E-02
    0.10323500534465191933E-01
    0.73272411776731114288E-02
    0.92995936436916712409E-02
    0.81459037665580873167E-02
    0.78431602166925840774E-02
    0.66071523125524325368E-02
    0.61390935225401864483E-02
    0.71529725988742857284E-02
    0.97728155084901083272E-02
    0.12895264959914854233E-01
    0.12635644227229632375E-01
    0.42825113445027433029E-02
    0.98807180873682169675E-02
    0.12833388186250837062E-01
    0.69965805146996792180E-02
    0.71198912215625666244E-02
    0.17866207160536391740E-01
    0.14050919891648416815E-01
    0.12813132952545071980E-01
    0.78335490162828088495E-02
    0.21763937487606088012E-01
    0.21086706468480966026E-01
    0.67589293715231849383E-02
    0.97831701549200116019E-02
    0.27419826514222124091E-03
    0.22839359232698321816E-03
    0.29596474362435449060E-03
    0.16109740813945901128E-01
    0.61809510461119133995E-02
    0.76590566774805725336E-02
    0.67780416497109216220E-02
    0.85005560197825482532E-02
    0.65934221498080494706E-02
    0.76879167660176038826E-02
    0.15654041934107146283E-01
    0.13098120304966983513E-01
    0.21754444875093245648E-01
    0.24400017710504574853E-01
    0.12788988892594759655E-01
    0.14914315668689077238E-01
    0.10499716785311020290E-01
    0.21786554221805791692E-03
    0.90639307351670708734E-02
    0.37666585531194434616E-02
    0.24861546619640070149E-02
    0.92713684671386631386E-02
    0.77997229229659782029E-02
    0.13805672487568849613E-01
    0.75548387080883530609E-02
    0.10516853691405621610E-01
    0.83246143943783088015E-02
    0.10090594934422989978E-01
    0.11009725472953137257E-03
    0.14963424789791212916E-03
    0.13897968433108277993E-03
    0.20197408661033058939E-03
    0.23381345934760070665E-03
    0.11394826201571519610E-03
    0.12895767823343040159E-03
    0.78468432924280410307E-02
    0.12369184845935715655E-01
    0.41608742545372117902E-02
    0.96437868847473271622E-02
    0.11343966326095189512E-01
    0.20571740658226187240E-03
    0.10771355355753511537E-01
    0.67249199493636894337E-02
    0.10103893811576223835E-01
    0.77724005829464502815E-02
    0.83168283171751022226E-02
    0.79322575506683666580E-02
    0.89214685190989722469E-02
    0.73113563510219690619E-02
    0.88088421599663926671E-04
    0.79893516241753639059E-04
    0.85817379622944755298E-04
    0.12907105233828198112E-03
    0.96840524386398440788E-04
    0.79027536261551157041E-04
    0.80341452162964888811E-04
    0.74284242659125388278E-02
    0.12728959176527519792E-01
    0.15752577932889019752E-01
    0.92371219151891181126E-02
    0.17619430487886552500E-01
    0.11061473906308474935E-01
    0.69447925983870187339E-02
    0.85454970376757245082E-02
    0.76653381734743154807E-02
    0.68141258706955849453E-02
    0.84763627484691576180E-02
    0.75757842870098042812E-02
    0.77226488351132549504E-02
    0.64658072866946372792E-02
    0.56064535999059425878E-02
    0.75185229025503917677E-02
    0.13579955065412394792E-03
    0.22620212179401034285E-03
    0.13373955475449777943E-03
    0.20577340907706377789E-03
    0.24980645402152782536E-03
    0.95331576512759953757E-02
    0.87518046732249586001E-02
    0.73394226472888162566E-02
    0.12387683403590112746E-01
    0.10350497760144520415E-01
    0.97633564741322984709E-02
    0.12949781675797213815E-01
    0.67317120455840633725E-02
    0.70932619480049870220E-02
    0.65246813833577050126E-02
    0.88578285891848136668E-02
    0.75231988806101993822E-02
    0.96760102336043204291E-02
    0.64942709885282478774E-02
    0.76126148515710439016E-02
    0.25656271455262343040E-02
    0.13687393249126329764E-01
    0.67764491836306180172E-02
    0.44295954482888979034E-02
    0.11417386989369112532E-01
    0.16556232077509995537E-01
    0.11625673671812324084E-01
    0.14871621550866704481E-01
    0.12647409883605260222E-01
    0.15291875481931477276E-01
    0.14869029831932981133E-03
    0.38358045596511794071E-03
    0.18970941600875878197E-03
    0.15128562929432213613E-03
    0.22528517423796783981E-03
    0.75061043623050530257E-04
    0.78762863228763456435E-04
    0.93708624090411854566E-04
    0.59158457980046144620E-04
    0.97774340390896814106E-04
    0.18610799251564315304E-01
    0.13042789493582319926E-01
    0.19229085291695618976E-01
    0.75395969134708406070E-02
    0.15004124554952098791E-01
    0.11391153980023147052E-01
    0.12521980102435562032E-01
    0.79492734465105314295E-02
    0.85026768713193229265E-02
    0.72688545968768204786E-02
    0.93682429666886134212E-02
    0.87114786657960519012E-02
    0.86279746751729419207E-02
    0.98949952635176436494E-02
    0.15234959745869920689E-01
    0.17750255392609180782E-01
    0.15961652963955422213E-01
    0.79787759778522111126E-02
    0.39439148575435003727E-02
    0.89887052771639563281E-02
    0.67052983379825169177E-04
    0.83362974291984295091E-04
    0.10918144160301217086E-03
    0.15475944389224929247E-03
    0.10895605289351558169E-03
    0.11120443656593566556E-03
    0.89579965952774781059E-03
    0.69485106579380917849E-02
    0.15197540891041383740E-01
    0.84903425497319922471E-02
    0.83341748533010164002E-02
    0.55153040100011192434E-02
    0.14065916748145307347E-01
    0.95402432904659311558E-02
    0.17659734189487748257E-01
    0.12735966235387126064E-01
    0.12074755108098550460E-01
    0.26152282356660819587E-02
    0.69047996456497911025E-02
    0.91289596471692199819E-02
    0.66492390044681146111E-02
    0.17459708312639944964E-03
    0.81883656083725855652E-04
    0.86302582439332835382E-04
    0.16349155168942856864E-01
    0.16216286489966573719E-02
    0.92924759960266123892E-04
    0.85865978696033542356E-02
    0.11834599459000545371E-01
    0.13766741604996600434E-01
    0.67842491189952190689E-02
    0.97227499155101322625E-02
    0.10299395944363300484E-01
    0.16702690859844077954E-02
    0.98023584535564278232E-03
    0.13416161757778794590E-03
    0.11119972002034793010E-01
    0.11713072297782893549E-01
    0.92888332033651925534E-02
    0.13887944002148705741E-03
    0.97132961076097954845E-04
    0.95690422542554345116E-04
    0.10010293775532071365E-03
    0.67870660384405036747E-04
    0.81857746389076533906E-04
    0.57058585217236610851E-02
    0.12281584765892198524E-01
    0.12554024990190225386E-01
    0.11778979038458209025E-01
    0.12672421696226836285E-01
    0.64217777301577112434E-02
    0.92912019928367527155E-02
    0.10374818461803329145E-01
    0.37410987451974206906E-03
    0.91984566509517931565E-02
    0.14189295169887500975E-01
    0.75902134527935259320E-02
    0.83924735739786676669E-02
    0.15751052609583458125E-01
    0.17571878591416827814E-01
    0.86548747026879840893E-02
    0.75030120251698816797E-02
    0.80411701559534735960E-04
    0.41061091653125702042E-02
    0.12384345050172525259E-03
    0.13134548650199780965E-03
    0.84957752192958736759E-02
    0.12126435863385864183E-01
    0.83092300517534641133E-04
    0.85599845027017630031E-04
    0.60926248474299947097E-02
    0.40535200182652379730E-02
    0.41617663958259216387E-03
    0.94860279356634470693E-02
    0.14878405743828961570E-03
    0.75614691576170456333E-02
    0.26064680608197218076E-01
    0.12453568793768880199E-03
    0.91424858008483968208E-02
    0.63445885686191560646E-02
    0.78104493287396090095E-02
    0.55441918850610187944E-02
    0.75055874521610379743E-02
    0.15318215707728230447E-03
    0.16003070525428175677E-03
    0.99405780555882235217E-02
    0.56276498123993172820E-02
    0.98494357630937376391E-02
    0.55345164965391714998E-02
    0.77801507946922811645E-02
    0.70784368061892451521E-02
    0.28115528513430632085E-01
    0.29346280205939229407E-03
    0.52601064818497981145E-04
    0.18039120231697588402E-04
    0.74887839796010579815E-02
    0.11959313957782040372E-01
    0.25430327952114488562E-03
    0.28647292257611735311E-03
    0.93757240134666143191E-03
    0.65543450097520022067E-03
    0.86739619317777628005E-03
    0.10454679708011751366E-01
    0.44021324175939069434E-02
    0.71227604812318812827E-02
    0.82147808517727821664E-02
    0.58631085530436643713E-02
    0.40013761450987620633E-02
    0.66473924581059986791E-02
    0.33993542593296409253E-02
    0.27860202632874857265E-02
    0.83859318170322501296E-02
    0.12565770083667843166E-04
    0.24001670343797973421E-04
    0.84287166711786182141E-04
    0.10243439213856832324E-03
    0.33595457758307692257E-04
    0.14354992898767971802E-04
    0.20811785540024722358E-04
    0.42630472820016317690E-04
    0.15782256862451233843E-03
    0.50958728529408028277E-03
    0.58843653664753539184E-05
    0.26383020608113276119E-05
    0.22608143772457335508E-05
    0.50282922723691214129E-05
    0.11550617216606193298E-04
    0.74765348401652003893E-04
    0.28186454085477453783E-03
