# vtk DataFile Version 3.0
LAPLACIEN  2D
ASCII
DATASET UNSTRUCTURED_GRID
 POINTS         391  float
  0.50371505999999999       0.50367786999999997        0.0000000000000000     
  0.29013556000000001       0.29014535000000002        0.0000000000000000     
  0.70165584999999997       0.71206597999999999        0.0000000000000000     
  0.70304188999999995       0.30176619999999998        0.0000000000000000     
  0.30920671999999999       0.71149227999999998        0.0000000000000000     
  0.79044983999999996       0.49884783999999999        0.0000000000000000     
  0.49102621000000002       0.20968644000000000        0.0000000000000000     
  0.49912957000000002       0.77208717000000004        0.0000000000000000     
  0.21724072999999999       0.48989389000000000        0.0000000000000000     
  0.83255933999999998       0.83046598000000005        0.0000000000000000     
  0.16646774000000000       0.17015694000000001        0.0000000000000000     
  0.83054514999999995       0.16736480000000001        0.0000000000000000     
  0.16953130999999999       0.83265739000000005        0.0000000000000000     
  0.42166445000000002       0.36345201999999999        0.0000000000000000     
  0.64462200999999997       0.56347807999999999        0.0000000000000000     
  0.35324633999999999       0.56311191000000005        0.0000000000000000     
  0.65456411000000003       0.84856860999999995        0.0000000000000000     
  0.35141477999999998       0.15563974000000000        0.0000000000000000     
  0.15290967000000000       0.35206625000000003        0.0000000000000000     
  0.82942241000000005       0.34936866000000000        0.0000000000000000     
  0.84390527000000004       0.64441694999999999        0.0000000000000000     
  0.63699174999999997       0.14284276000000001        0.0000000000000000     
  0.15620682999999999       0.64648446999999998        0.0000000000000000     
  0.36426062999999997       0.85756310999999996        0.0000000000000000     
  0.63489340999999999       0.40519052000000000        0.0000000000000000     
  0.52518872999999999       0.65957078000000002        0.0000000000000000     
  0.32158959999999998       0.42298103999999997        0.0000000000000000     
  0.58861710000000000       0.31711036999999997        0.0000000000000000     
  0.42078418000000001       0.69497151999999995        0.0000000000000000     
  0.48608786999999998       0.89334152000000000        0.0000000000000000     
   9.7084320000000002E-002  0.50000000000000000        0.0000000000000000     
  0.90291568000000000       0.50000000000000000        0.0000000000000000     
  0.51392453000000005       0.10668648999999999        0.0000000000000000     
  0.59792566999999996       0.73122754000000001        0.0000000000000000     
  0.74510058999999995       0.41124730999999998        0.0000000000000000     
  0.73212551999999997       0.90191560000000004        0.0000000000000000     
   9.7784830000000003E-002  0.26957329000000002        0.0000000000000000     
  0.26711221000000002        9.8671499999999995E-002   0.0000000000000000     
  0.90191560000000004       0.26787448000000003        0.0000000000000000     
  0.90118569000000004       0.73039821000000005        0.0000000000000000     
  0.73122947000000005        9.8017859999999998E-002   0.0000000000000000     
   9.8084400000000002E-002  0.73212551999999997        0.0000000000000000     
  0.26957329000000002       0.90221516999999996        0.0000000000000000     
  0.39283522999999998       0.25360379000000000        0.0000000000000000     
  0.74480864000000002       0.60495284999999999        0.0000000000000000     
  0.25505132000000003       0.60593640999999998        0.0000000000000000     
  0.52159297999999998       0.40671636000000000        0.0000000000000000     
  0.40768852000000000       0.47699891000000000        0.0000000000000000     
   9.1467049999999994E-002   9.1876959999999994E-002   0.0000000000000000     
  0.90842484999999995       0.90819225000000003        0.0000000000000000     
  0.90820104999999995        9.1566729999999999E-002   0.0000000000000000     
   9.1807449999999999E-002  0.90843574000000005        0.0000000000000000     
  0.27098960000000000       0.20527094000000001        0.0000000000000000     
  0.73457293999999995       0.79835387000000002        0.0000000000000000     
  0.79817773000000003       0.25713470999999999        0.0000000000000000     
  0.20747797000000001       0.72863946000000002        0.0000000000000000     
  0.20175195000000001       0.27583914999999998        0.0000000000000000     
  0.79603889000000005       0.72159035000000005        0.0000000000000000     
  0.71761666000000002       0.19748431999999999        0.0000000000000000     
  0.28462607000000001       0.80251899999999998        0.0000000000000000     
  0.69134598999999997       0.49261972999999998        0.0000000000000000     
  0.44720578999999999       0.58582935999999997        0.0000000000000000     
  0.24242269999999999       0.37228174000000003        0.0000000000000000     
  0.38265623999999998       0.93072131999999996        0.0000000000000000     
  0.60971754000000000       0.91988369000000003        0.0000000000000000     
   7.9163609999999995E-002  0.60979116000000000        0.0000000000000000     
  0.92010649000000000       0.61081183999999999        0.0000000000000000     
  0.61954008999999999        7.1530830000000004E-002   0.0000000000000000     
  0.91882012999999996       0.38917363999999999        0.0000000000000000     
  0.39086346000000000        8.0652249999999995E-002   0.0000000000000000     
   7.9183480000000001E-002  0.38966213000000000        0.0000000000000000     
  0.59114111999999996       0.49294315000000000        0.0000000000000000     
  0.63337980999999999       0.64485914000000000        0.0000000000000000     
  0.50012352000000004       0.29676539000000002        0.0000000000000000     
  0.82552601000000003       0.92753492000000004        0.0000000000000000     
  0.92774772999999999       0.82498556999999995        0.0000000000000000     
   7.1970870000000006E-002  0.17510291000000000        0.0000000000000000     
  0.17422821999999999        7.2635640000000001E-002   0.0000000000000000     
  0.82510813000000005        7.2134840000000006E-002   0.0000000000000000     
  0.92754665000000003       0.17446275999999999        0.0000000000000000     
  0.17501022999999999       0.92789951999999998        0.0000000000000000     
   7.2464680000000004E-002  0.82554053000000005        0.0000000000000000     
  0.30731587999999999       0.50885354999999999        0.0000000000000000     
  0.59033407999999998       0.22171178999999999        0.0000000000000000     
  0.40109191999999999       0.78725542000000004        0.0000000000000000     
  0.35420917000000002       0.63754104000000000        0.0000000000000000     
  0.15983976999999999       0.56665573000000002        0.0000000000000000     
  0.84108459999999996       0.56757886999999996        0.0000000000000000     
  0.83902096000000004       0.43344338999999998        0.0000000000000000     
  0.43230028999999998       0.16004268999999999        0.0000000000000000     
  0.57536027999999995       0.83041363999999995        0.0000000000000000     
  0.15771898000000001       0.42747892999999998        0.0000000000000000     
  0.34021692999999997       0.34221559000000001        0.0000000000000000     
  0.56002271999999997       0.57501117999999996        0.0000000000000000     
  0.65344329000000001       0.78147597999999996        0.0000000000000000     
   0.0000000000000000        0.0000000000000000        0.0000000000000000     
   1.0000000000000000        0.0000000000000000        0.0000000000000000     
   1.0000000000000000        1.0000000000000000        0.0000000000000000     
   0.0000000000000000        1.0000000000000000        0.0000000000000000     
  0.11111111000000000        0.0000000000000000        0.0000000000000000     
  0.22222222000000000        0.0000000000000000        0.0000000000000000     
  0.33333332999999998        0.0000000000000000        0.0000000000000000     
  0.44444444000000000        0.0000000000000000        0.0000000000000000     
  0.55555555999999995        0.0000000000000000        0.0000000000000000     
  0.66666667000000002        0.0000000000000000        0.0000000000000000     
  0.77777777999999997        0.0000000000000000        0.0000000000000000     
  0.88888889000000004        0.0000000000000000        0.0000000000000000     
   1.0000000000000000       0.11111111000000000        0.0000000000000000     
   1.0000000000000000       0.22222222000000000        0.0000000000000000     
   1.0000000000000000       0.33333332999999998        0.0000000000000000     
   1.0000000000000000       0.44444444000000000        0.0000000000000000     
   1.0000000000000000       0.55555555999999995        0.0000000000000000     
   1.0000000000000000       0.66666667000000002        0.0000000000000000     
   1.0000000000000000       0.77777777999999997        0.0000000000000000     
   1.0000000000000000       0.88888889000000004        0.0000000000000000     
  0.88888889000000004        1.0000000000000000        0.0000000000000000     
  0.77777777999999997        1.0000000000000000        0.0000000000000000     
  0.66666667000000002        1.0000000000000000        0.0000000000000000     
  0.55555555999999995        1.0000000000000000        0.0000000000000000     
  0.44444444000000000        1.0000000000000000        0.0000000000000000     
  0.33333332999999998        1.0000000000000000        0.0000000000000000     
  0.22222222000000000        1.0000000000000000        0.0000000000000000     
  0.11111111000000000        1.0000000000000000        0.0000000000000000     
   0.0000000000000000       0.11111111000000000        0.0000000000000000     
   0.0000000000000000       0.22222222000000000        0.0000000000000000     
[...]
 CELL_DATA         354
 SCALARS U float
 LOOKUP_TABLE default
    0.57055458137328517892E-04
    0.18591994586066667994E-01
    0.20571766879138236395E-03
    0.63643372960255518034E-03
    0.71879803354929489153E-04
    0.97498070661428592933E-03
    0.15345817144509658891E-01
    0.58998082864964761576E-02
    0.14254416763277495683E-01
    0.87430145423405321997E-02
    0.67736285382923597589E-02
    0.73407659704163748249E-02
    0.88989355851300019212E-02
    0.90849783571482281563E-02
    0.89723772878824107485E-02
    0.82199683025929205782E-02
    0.76833850918012844972E-02
    0.67192314914532383363E-02
    0.11393602496532352630E-01
    0.83768955995518895596E-02
    0.19917650907974204788E-01
    0.15152687731410766775E-01
    0.11023054188974154913E-01
    0.12653276995331872237E-01
    0.10005886668530774436E-01
    0.85172224866508459973E-02
    0.13558780377363563452E-01
    0.84664935658667547780E-02
    0.16945744110880636701E-01
    0.83752196923137268991E-02
    0.70748221931000928068E-04
    0.98660978894765845055E-04
    0.80922003337821713583E-04
    0.64668405396418228849E-04
    0.11230999596733421114E-03
    0.97524059042003907911E-04
    0.14190857157481297614E-03
    0.97215796227097326775E-04
    0.53732690089958111651E-04
    0.55385804840366559233E-04
    0.40736710221806310655E-04
    0.40449621112663287068E-04
    0.41549256496862213659E-04
    0.39860190916727035958E-04
    0.46303587136570950079E-04
    0.29516056287547244819E-04
    0.55106160179168862641E-04
    0.39065267952994583512E-04
    0.11927165815734263492E-03
    0.24535844473076799102E-03
    0.47131369813336579291E-03
    0.31270804475753337468E-03
    0.51272556694481622927E-04
    0.23898435371312258112E-04
    0.54445804203166575620E-04
    0.22599319860127213577E-04
    0.53902163063483573549E-04
    0.43467916711106380050E-04
    0.54393068839145415573E-04
    0.43797408636873505830E-04
    0.55628988780610574426E-04
    0.44025423894759069406E-04
    0.47589840778189821725E-04
    0.47928104969967829979E-04
    0.90884189081636896127E-04
    0.11033983735611116862E-03
    0.22750217645157658078E-03
    0.17898435508157311885E-03
    0.73024400244476369432E-02
    0.97293924835054994282E-02
    0.69691611462718936615E-02
    0.87830953737622896593E-02
    0.77879694354819912344E-02
    0.74880265509409656491E-02
    0.62907388881601189468E-02
    0.57549324876741761448E-02
    0.67630782319662739385E-02
    0.93627673665503084732E-02
    0.11915336125565310216E-01
    0.11457263194237593540E-01
    0.42526743531612915677E-02
    0.90280158244303854165E-02
    0.12407793254499921431E-01
    0.60929413646988016956E-02
    0.66379711956055581154E-02
    0.16566002320616612931E-01
    0.12440696207714690286E-01
    0.12265247210707904205E-01
    0.73106128375861759508E-02
    0.20182372127661829531E-01
    0.19211040750554870399E-01
    0.63101737569348417128E-02
    0.90118600413779722386E-02
    0.24713706534321941725E-03
    0.20538441651139443633E-03
    0.26785357368002419209E-03
    0.14930361688137890053E-01
    0.58190317828415863768E-02
    0.73061803900703525469E-02
    0.64406336413701942289E-02
    0.81272026464660959699E-02
    0.62141314113582030512E-02
    0.73502518996091358028E-02
    0.14492648330744786062E-01
    0.12028889587438092168E-01
    0.21117269817736983306E-01
    0.23666884971734539200E-01
    0.11929356228210615670E-01
    0.13340938335684612154E-01
    0.98574910604219117410E-02
    0.19575371725116577615E-03
    0.82353614078034056978E-02
    0.37618629684839145245E-02
    0.25201881216715326869E-02
    0.85521420185167389139E-02
    0.74536205139170801093E-02
    0.12756961898195168237E-01
    0.68454035510059733916E-02
    0.99490659927736514734E-02
    0.76753325420982326105E-02
    0.92429472736847706482E-02
    0.98271203281671723169E-04
    0.13398873242479613808E-03
    0.12478152062138353874E-03
    0.18141316181612775053E-03
    0.21044735907340666862E-03
    0.10197957501152061046E-03
    0.11558485158941515184E-03
    0.74058262932950383317E-02
    0.11295294563360947296E-01
    0.41520407829097969593E-02
    0.91505774056574937236E-02
    0.10690826353373053537E-01
    0.18565292213616169082E-03
    0.99903162872899478608E-02
    0.63961512973906434545E-02
    0.95882073318818723112E-02
    0.72325901199172797779E-02
    0.79253046968273295481E-02
    0.75255698989562325521E-02
    0.83450097025631470027E-02
    0.68581348250936133293E-02
    0.78609856918521159828E-04
    0.71301693289061603945E-04
    0.76532097456521915859E-04
    0.11557119908406979496E-03
    0.86341252767730729202E-04
    0.70402456279370522786E-04
    0.71625956752447239128E-04
    0.70412934487791532800E-02
    0.11863272135037773725E-01
    0.14898194077829492871E-01
    0.87177301146967190598E-02
    0.16606987904983130239E-01
    0.10456077300048530546E-01
    0.65853286818788013546E-02
    0.81600024995460915256E-02
    0.73103461438606895384E-02
    0.64651503667374245199E-02
    0.81425527453327147670E-02
    0.70370546276901368987E-02
    0.72978022352630034578E-02
    0.60485642343060200959E-02
    0.51722427359639812361E-02
    0.69928781084095618242E-02
    0.12111984492135993154E-03
    0.20273943544196456126E-03
    0.11909750654142190049E-03
    0.18427065300072269075E-03
    0.22511425631976434997E-03
    0.90117639934382421513E-02
    0.83364357313452080306E-02
    0.70074267560563683124E-02
    0.11737378944868474828E-01
    0.98116661180065126852E-02
    0.89393121167148977685E-02
    0.11538530625397948673E-01
    0.61579558328936955316E-02
    0.68189951983107406630E-02
    0.59482926003432412543E-02
    0.84018947179999425162E-02
    0.71877219346514129028E-02
    0.91647154077070160788E-02
    0.61778849832800049671E-02
    0.72764677451314105708E-02
    0.25528843687953679982E-02
    0.12579773889742410647E-01
    0.61314162537858592911E-02
    0.38914890475372620332E-02
    0.10413226524338424495E-01
    0.15334019064069410315E-01
    0.10803043563646773373E-01
    0.14227229347092768680E-01
    0.11746558563484461174E-01
    0.14503899789921134364E-01
    0.13315510909347997204E-03
    0.34888864200039994235E-03
    0.17016634064187483879E-03
    0.13507087702081940414E-03
    0.20233927127361183850E-03
    0.66511820076786156136E-04
    0.69863328175163630818E-04
    0.83178317121700612357E-04
    0.52172007757117418733E-04
    0.86903288551112939874E-04
    0.16548471124451819003E-01
    0.12451476760864506332E-01
    0.17714140264842921646E-01
    0.70281219062823495347E-02
    0.14245571328406056097E-01
    0.10406071828385588668E-01
    0.11265965896919624689E-01
    0.74353478106980192691E-02
    0.79334865658998443561E-02
    0.68759915486119004002E-02
    0.89254355119865874668E-02
    0.81411714051690432792E-02
    0.80704257830618436609E-02
    0.94782163235433286586E-02
    0.13381611178940697182E-01
    0.14889333108177041365E-01
    0.13312067491214022927E-01
    0.73794780902648182686E-02
    0.39265020301140441880E-02
    0.83113948853415393903E-02
    0.59295655943845363041E-04
    0.73820307290565437969E-04
    0.96995636611855884520E-04
    0.13848261984773362629E-03
    0.96647196814215883187E-04
    0.98668153072308759652E-04
    0.10623257846671210237E-02
    0.64258943587805605197E-02
    0.14387599057976385025E-01
    0.78731486907736326908E-02
    0.78939943770052999061E-02
    0.51667873203686646988E-02
    0.13130085877748748358E-01
    0.89584902211357498453E-02
    0.16257183656513459619E-01
    0.11942485168125266393E-01
    0.11665357398698977809E-01
    0.26416205360407858833E-02
    0.59393477054659037789E-02
    0.86139728640910375596E-02
    0.63361765671976376033E-02
    0.15652989696334900513E-03
    0.72572727272718552021E-04
    0.76774594909894018895E-04
    0.14892512762367858190E-01
    0.17811043897651543302E-02
    0.82713071766133054014E-04
    0.81400930245927073658E-02
    0.11074521402076212967E-01
    0.11933027181293673347E-01
    0.64638477970240040826E-02
    0.90539870795349128296E-02
    0.95939343053847523507E-02
    0.16478150811009685626E-02
    0.97767185860986077946E-03
    0.12016444056082757565E-03
    0.10434814726028576390E-01
    0.10968830736149527347E-01
    0.86452394517329105017E-02
    0.12436376189755164235E-03
    0.86417062518856488699E-04
    0.85527952292891091558E-04
    0.89249671081174935952E-04
    0.60179057213587330160E-04
    0.73015864685792183876E-04
    0.54244982659460401833E-02
    0.11220651798394667975E-01
    0.11818364543654712867E-01
    0.11158831401985027862E-01
    0.11205058522516858285E-01
    0.60976971374883445071E-02
    0.87238398718463682630E-02
    0.97553659202775731135E-02
    0.34047236286620385665E-03
    0.87309263176547115270E-02
    0.13140236089983887979E-01
    0.67564838064715559626E-02
    0.77967377598546312376E-02
    0.14957582204112003857E-01
    0.16213241263365658906E-01
    0.82403230918367299795E-02
    0.70861972845992814499E-02
    0.70955340040045980520E-04
    0.41018435118281865864E-02
    0.11101118229343196169E-03
    0.11789309160520031769E-03
    0.77314329339118886830E-02
    0.11435368957052462896E-01
    0.74172260644113003117E-04
    0.76474056898896727017E-04
    0.57204802788780734213E-02
    0.39701790618717472045E-02
    0.44826052563174046588E-03
    0.89657503861171120030E-02
    0.13311726408659824475E-03
    0.69354065143136141292E-02
    0.24581586285222535582E-01
    0.11088915659591370099E-03
    0.86405713438604848931E-02
    0.58508513480472349247E-02
    0.74613698331482455200E-02
    0.50250760267144109136E-02
    0.71604630395174931681E-02
    0.13693479522381779914E-03
    0.14303342450342536947E-03
    0.91311761629601570500E-02
    0.52999180702904477580E-02
    0.92696024998421017865E-02
    0.50922368343129719923E-02
    0.74375686783555335080E-02
    0.67156608011254932331E-02
    0.26007881016197640506E-01
    0.26619905650766936996E-03
    0.46134597474516031456E-04
    0.15550589935934126828E-04
    0.71611266999146057366E-02
    0.11292724873654406276E-01
    0.23167026775132231690E-03
    0.26069944297221937660E-03
    0.86680431329766113348E-03
    0.60431482095928037556E-03
    0.91655395834973894028E-03
    0.97902667191088268983E-02
    0.40904049219930693065E-02
    0.68268490504443720551E-02
    0.78910791101126746827E-02
    0.55267493787053830964E-02
    0.35505432489832708214E-02
    0.57739212482697446077E-02
    0.30853565705350996691E-02
    0.24021971656874871806E-02
    0.77451059217171205548E-02
    0.10889022941440292333E-04
    0.20880048565215783205E-04
    0.75022499264718340976E-04
    0.91500353968162142127E-04
    0.29367940957146627213E-04
    0.12277501194483140466E-04
    0.17966981449335946006E-04
    0.37331874547073863884E-04
    0.14267690115989545849E-03
    0.46742986858829015974E-03
    0.49510847555948820237E-05
    0.21758899910740514365E-05
    0.18597774860855090684E-05
    0.42133907554331529528E-05
    0.98890733245864111898E-05
    0.66795168257717559674E-04
    0.25642521290204322963E-03
