# vtk DataFile Version 3.0
LAPLACIEN  2D
ASCII
DATASET UNSTRUCTURED_GRID
 POINTS         391  float
  0.50371505999999999       0.50367786999999997        0.0000000000000000     
  0.29013556000000001       0.29014535000000002        0.0000000000000000     
  0.70165584999999997       0.71206597999999999        0.0000000000000000     
  0.70304188999999995       0.30176619999999998        0.0000000000000000     
  0.30920671999999999       0.71149227999999998        0.0000000000000000     
  0.79044983999999996       0.49884783999999999        0.0000000000000000     
  0.49102621000000002       0.20968644000000000        0.0000000000000000     
  0.49912957000000002       0.77208717000000004        0.0000000000000000     
  0.21724072999999999       0.48989389000000000        0.0000000000000000     
  0.83255933999999998       0.83046598000000005        0.0000000000000000     
  0.16646774000000000       0.17015694000000001        0.0000000000000000     
  0.83054514999999995       0.16736480000000001        0.0000000000000000     
  0.16953130999999999       0.83265739000000005        0.0000000000000000     
  0.42166445000000002       0.36345201999999999        0.0000000000000000     
  0.64462200999999997       0.56347807999999999        0.0000000000000000     
  0.35324633999999999       0.56311191000000005        0.0000000000000000     
  0.65456411000000003       0.84856860999999995        0.0000000000000000     
  0.35141477999999998       0.15563974000000000        0.0000000000000000     
  0.15290967000000000       0.35206625000000003        0.0000000000000000     
  0.82942241000000005       0.34936866000000000        0.0000000000000000     
  0.84390527000000004       0.64441694999999999        0.0000000000000000     
  0.63699174999999997       0.14284276000000001        0.0000000000000000     
  0.15620682999999999       0.64648446999999998        0.0000000000000000     
  0.36426062999999997       0.85756310999999996        0.0000000000000000     
  0.63489340999999999       0.40519052000000000        0.0000000000000000     
  0.52518872999999999       0.65957078000000002        0.0000000000000000     
  0.32158959999999998       0.42298103999999997        0.0000000000000000     
  0.58861710000000000       0.31711036999999997        0.0000000000000000     
  0.42078418000000001       0.69497151999999995        0.0000000000000000     
  0.48608786999999998       0.89334152000000000        0.0000000000000000     
   9.7084320000000002E-002  0.50000000000000000        0.0000000000000000     
  0.90291568000000000       0.50000000000000000        0.0000000000000000     
  0.51392453000000005       0.10668648999999999        0.0000000000000000     
  0.59792566999999996       0.73122754000000001        0.0000000000000000     
  0.74510058999999995       0.41124730999999998        0.0000000000000000     
  0.73212551999999997       0.90191560000000004        0.0000000000000000     
   9.7784830000000003E-002  0.26957329000000002        0.0000000000000000     
  0.26711221000000002        9.8671499999999995E-002   0.0000000000000000     
  0.90191560000000004       0.26787448000000003        0.0000000000000000     
  0.90118569000000004       0.73039821000000005        0.0000000000000000     
  0.73122947000000005        9.8017859999999998E-002   0.0000000000000000     
   9.8084400000000002E-002  0.73212551999999997        0.0000000000000000     
  0.26957329000000002       0.90221516999999996        0.0000000000000000     
  0.39283522999999998       0.25360379000000000        0.0000000000000000     
  0.74480864000000002       0.60495284999999999        0.0000000000000000     
  0.25505132000000003       0.60593640999999998        0.0000000000000000     
  0.52159297999999998       0.40671636000000000        0.0000000000000000     
  0.40768852000000000       0.47699891000000000        0.0000000000000000     
   9.1467049999999994E-002   9.1876959999999994E-002   0.0000000000000000     
  0.90842484999999995       0.90819225000000003        0.0000000000000000     
  0.90820104999999995        9.1566729999999999E-002   0.0000000000000000     
   9.1807449999999999E-002  0.90843574000000005        0.0000000000000000     
  0.27098960000000000       0.20527094000000001        0.0000000000000000     
  0.73457293999999995       0.79835387000000002        0.0000000000000000     
  0.79817773000000003       0.25713470999999999        0.0000000000000000     
  0.20747797000000001       0.72863946000000002        0.0000000000000000     
  0.20175195000000001       0.27583914999999998        0.0000000000000000     
  0.79603889000000005       0.72159035000000005        0.0000000000000000     
  0.71761666000000002       0.19748431999999999        0.0000000000000000     
  0.28462607000000001       0.80251899999999998        0.0000000000000000     
  0.69134598999999997       0.49261972999999998        0.0000000000000000     
  0.44720578999999999       0.58582935999999997        0.0000000000000000     
  0.24242269999999999       0.37228174000000003        0.0000000000000000     
  0.38265623999999998       0.93072131999999996        0.0000000000000000     
  0.60971754000000000       0.91988369000000003        0.0000000000000000     
   7.9163609999999995E-002  0.60979116000000000        0.0000000000000000     
  0.92010649000000000       0.61081183999999999        0.0000000000000000     
  0.61954008999999999        7.1530830000000004E-002   0.0000000000000000     
  0.91882012999999996       0.38917363999999999        0.0000000000000000     
  0.39086346000000000        8.0652249999999995E-002   0.0000000000000000     
   7.9183480000000001E-002  0.38966213000000000        0.0000000000000000     
  0.59114111999999996       0.49294315000000000        0.0000000000000000     
  0.63337980999999999       0.64485914000000000        0.0000000000000000     
  0.50012352000000004       0.29676539000000002        0.0000000000000000     
  0.82552601000000003       0.92753492000000004        0.0000000000000000     
  0.92774772999999999       0.82498556999999995        0.0000000000000000     
   7.1970870000000006E-002  0.17510291000000000        0.0000000000000000     
  0.17422821999999999        7.2635640000000001E-002   0.0000000000000000     
  0.82510813000000005        7.2134840000000006E-002   0.0000000000000000     
  0.92754665000000003       0.17446275999999999        0.0000000000000000     
  0.17501022999999999       0.92789951999999998        0.0000000000000000     
   7.2464680000000004E-002  0.82554053000000005        0.0000000000000000     
  0.30731587999999999       0.50885354999999999        0.0000000000000000     
  0.59033407999999998       0.22171178999999999        0.0000000000000000     
  0.40109191999999999       0.78725542000000004        0.0000000000000000     
  0.35420917000000002       0.63754104000000000        0.0000000000000000     
  0.15983976999999999       0.56665573000000002        0.0000000000000000     
  0.84108459999999996       0.56757886999999996        0.0000000000000000     
  0.83902096000000004       0.43344338999999998        0.0000000000000000     
  0.43230028999999998       0.16004268999999999        0.0000000000000000     
  0.57536027999999995       0.83041363999999995        0.0000000000000000     
  0.15771898000000001       0.42747892999999998        0.0000000000000000     
  0.34021692999999997       0.34221559000000001        0.0000000000000000     
  0.56002271999999997       0.57501117999999996        0.0000000000000000     
  0.65344329000000001       0.78147597999999996        0.0000000000000000     
   0.0000000000000000        0.0000000000000000        0.0000000000000000     
   1.0000000000000000        0.0000000000000000        0.0000000000000000     
   1.0000000000000000        1.0000000000000000        0.0000000000000000     
   0.0000000000000000        1.0000000000000000        0.0000000000000000     
  0.11111111000000000        0.0000000000000000        0.0000000000000000     
  0.22222222000000000        0.0000000000000000        0.0000000000000000     
  0.33333332999999998        0.0000000000000000        0.0000000000000000     
  0.44444444000000000        0.0000000000000000        0.0000000000000000     
  0.55555555999999995        0.0000000000000000        0.0000000000000000     
  0.66666667000000002        0.0000000000000000        0.0000000000000000     
  0.77777777999999997        0.0000000000000000        0.0000000000000000     
  0.88888889000000004        0.0000000000000000        0.0000000000000000     
   1.0000000000000000       0.11111111000000000        0.0000000000000000     
   1.0000000000000000       0.22222222000000000        0.0000000000000000     
   1.0000000000000000       0.33333332999999998        0.0000000000000000     
   1.0000000000000000       0.44444444000000000        0.0000000000000000     
   1.0000000000000000       0.55555555999999995        0.0000000000000000     
   1.0000000000000000       0.66666667000000002        0.0000000000000000     
   1.0000000000000000       0.77777777999999997        0.0000000000000000     
   1.0000000000000000       0.88888889000000004        0.0000000000000000     
  0.88888889000000004        1.0000000000000000        0.0000000000000000     
  0.77777777999999997        1.0000000000000000        0.0000000000000000     
  0.66666667000000002        1.0000000000000000        0.0000000000000000     
  0.55555555999999995        1.0000000000000000        0.0000000000000000     
  0.44444444000000000        1.0000000000000000        0.0000000000000000     
  0.33333332999999998        1.0000000000000000        0.0000000000000000     
  0.22222222000000000        1.0000000000000000        0.0000000000000000     
  0.11111111000000000        1.0000000000000000        0.0000000000000000     
   0.0000000000000000       0.11111111000000000        0.0000000000000000     
   0.0000000000000000       0.22222222000000000        0.0000000000000000     
[...]
 CELL_DATA         354
 SCALARS U float
 LOOKUP_TABLE default
    0.27902637360861320959E-01
    0.84274428012131363808E-01
    0.91478993540079822644E-01
    0.24909083951104327159E+00
    0.34258228766236117901E-01
    0.59644717767417233800E-01
    0.15507838300934825848E+00
    0.59069405853019542330E-01
    0.28647998306416450065E+00
    0.37295130596776837617E+00
    0.53357106963619593820E+00
    0.50074066309531417573E+00
    0.59959433930405325874E+00
    0.63068605982291825462E+00
    0.59394226099097713334E+00
    0.60299327989589524002E+00
    0.44263681001479993071E+00
    0.31318282088827903431E+00
    0.12712657900230023289E+00
    0.20321017890884318646E+00
    0.84298350704891555907E-01
    0.81246757133416613872E-01
    0.17419544120139854315E+00
    0.11400063902187101972E+00
    0.17711607129559681084E+00
    0.15753720743625268530E+00
    0.12411154388395390091E+00
    0.14303022676840482230E+00
    0.10228171014068886124E+00
    0.51091014657574353175E-01
    0.33100863400429600403E-01
    0.50429087532936414662E-01
    0.37331846049748207417E-01
    0.27047885138900856772E-01
    0.44786451762962461998E-01
    0.40463930839964024067E-01
    0.68720172887893699043E-01
    0.42565209219369987137E-01
    0.23847593954833181534E-01
    0.24167342265906551629E-01
    0.17990311807786221743E-01
    0.18676768198291313766E-01
    0.18788887055122060338E-01
    0.18417249931701754062E-01
    0.20924534491981471029E-01
    0.12885520906644130565E-01
    0.23950632213830341799E-01
    0.17508884061575913371E-01
    0.51545662933132022077E-01
    0.10373909326922818586E+00
    0.19564623496217234400E+00
    0.12903801980557103035E+00
    0.25397033202189573525E-01
    0.11199482496597558401E-01
    0.24910219057937079551E-01
    0.10687832357706325906E-01
    0.24703473279478482122E-01
    0.21443552450015460065E-01
    0.27630051631800128797E-01
    0.21571125211892867857E-01
    0.28111108259878194587E-01
    0.20922847004851141683E-01
    0.20161557926465647345E-01
    0.22422164615089740930E-01
    0.39278934182072150483E-01
    0.51377641879948948711E-01
    0.84808110940461145510E-01
    0.77963401541990010046E-01
    0.74665740199470842509E+00
    0.84618052296767365394E+00
    0.85569007646721861882E+00
    0.81882046687611587110E+00
    0.85714536194920543100E+00
    0.80485088781954283732E+00
    0.82050894137081753499E+00
    0.82167638196598191680E+00
    0.81968015813539696346E+00
    0.84012729571043742727E+00
    0.60513410474054740718E+00
    0.72577641969279227396E+00
    0.22623659423435255045E+00
    0.44020944926256877494E+00
    0.78280917414752659855E+00
    0.33694646586630866425E+00
    0.70489045989689458338E+00
    0.22495886006687723646E+00
    0.80636564865222248866E-01
    0.51516376410812525499E+00
    0.61887435065209372986E+00
    0.36557777917096095921E+00
    0.14065739816198030709E+00
    0.38397941304472765767E+00
    0.46623250393338994124E+00
    0.17096697446682687649E+00
    0.11313654671331623003E+00
    0.12406479224751228163E+00
    0.63111941889652267701E+00
    0.75446099479207440197E+00
    0.82853412343421317665E+00
    0.83220647344204146112E+00
    0.84469536622021135219E+00
    0.80172295327736808890E+00
    0.82993030705566395167E+00
    0.52039866075422058778E+00
    0.49313735413162446131E+00
    0.20403601001810647841E+00
    0.23080319376783253738E+00
    0.68314522758256268631E+00
    0.65973897386981894542E+00
    0.50467133278473141900E+00
    0.11183767251613863092E+00
    0.37748044931448471173E+00
    0.17574283800015660928E+00
    0.15864973906305099294E+00
    0.80382854565731665097E+00
    0.22960176249383140723E+00
    0.56968335957654780977E+00
    0.76169224699344295626E+00
    0.79602634438907760028E+00
    0.26594096319504589854E+00
    0.50496912986066277984E+00
    0.42918740714094669175E-01
    0.59880533934406704466E-01
    0.52682065917944963240E-01
    0.88508705769365439431E-01
    0.11018017791230573510E+00
    0.43961278582730890785E-01
    0.49256015073935434379E-01
    0.13089752878478716491E+00
    0.49785360696256941715E+00
    0.10571258483785901661E+00
    0.68380549875071172661E+00
    0.46397247199418040209E+00
    0.91415757270290429193E-01
    0.18254217024007401982E+00
    0.76801594963328845278E+00
    0.83697352293861548844E+00
    0.52791023682164350816E+00
    0.84689162550596375212E+00
    0.81435589757457182980E+00
    0.77132137374855658241E+00
    0.52325212195701298334E+00
    0.33123299713491247132E-01
    0.29509531862004858421E-01
    0.31700720425367104327E-01
    0.52001098764117834050E-01
    0.37038388222024307139E-01
    0.29166412823969825596E-01
    0.29702085373640985805E-01
    0.81053832107779744121E+00
    0.72705631593832020787E+00
    0.41753176920159473795E+00
    0.72632833353057035808E+00
    0.36189529847800339102E+00
    0.81120054341623359928E+00
    0.84165200632155157123E+00
    0.85144914136690141859E+00
    0.83447249395064915234E+00
    0.86327019431644891334E+00
    0.84253665632040986022E+00
    0.77296883071022026712E+00
    0.79512813568464080216E+00
    0.83390445281522662668E+00
    0.80098352456597221583E+00
    0.83158336104951136036E+00
    0.60753495649859629024E-01
    0.10634227250169887846E+00
    0.60825880173241739235E-01
    0.96798396617529494645E-01
    0.10747535503068211815E+00
    0.81638284679966699464E+00
    0.82960538551371088012E+00
    0.85186578617382213707E+00
    0.83926141056965430920E+00
    0.84828821718509894723E+00
    0.17573817173291281235E+00
    0.53316148704694088512E+00
    0.54022419262483678537E+00
    0.12365209446123440196E+00
    0.25426761986687962391E+00
    0.81896892525724918066E+00
    0.77034551793648320395E+00
    0.84619168567439639883E+00
    0.74803701629789565164E+00
    0.84711512107459641108E+00
    0.16837704328207406257E+00
    0.63258411194660801868E+00
    0.31370078252486727211E+00
    0.28606055565572352517E+00
    0.61288897635421546450E+00
    0.79195626684238140669E+00
    0.82878791413277652644E+00
    0.65742790181775923042E+00
    0.86638450487650697784E+00
    0.50930487685788516927E+00
    0.62604549301107439985E-01
    0.16819009741695878368E+00
    0.81589594276506804960E-01
    0.65509249435409144802E-01
    0.94601348310204433356E-01
    0.29568870518319485124E-01
    0.29396831427550784710E-01
    0.36279918252558086833E-01
    0.22567532366599515892E-01
    0.39036809441979396229E-01
    0.10532645034780568905E+00
    0.54063833856939946809E+00
    0.25683497560192158904E+00
    0.70796595186296895630E+00
    0.54431633477089624851E+00
    0.77346007328944510473E+00
    0.68532966891434332624E+00
    0.83899439704475631263E+00
    0.84886018970329679689E+00
    0.84984402365348876707E+00
    0.83552801928348108262E+00
    0.81736896709258344274E+00
    0.84090926903176277385E+00
    0.81127901786258516115E+00
    0.10556901120350571655E+00
    0.43103539875590096697E-01
    0.60842586479733756777E-01
    0.78048993130096400161E+00
    0.22468196831465669927E+00
    0.68978010210721774076E+00
    0.26662626455541418857E-01
    0.34111795522139214121E-01
    0.44198331603788422461E-01
    0.69850422759752547885E-01
    0.47872295174501283688E-01
    0.48704271598980247715E-01
    0.76494299870349419246E-01
    0.17153963805462937864E+00
    0.28852733501142369121E+00
    0.43131042517687551152E+00
    0.61797063325087742136E+00
    0.71398380100157343708E+00
    0.85220957330081803516E+00
    0.79300130249648392855E+00
    0.42840247377858886590E+00
    0.77442105654447290775E+00
    0.77549098792554627124E+00
    0.17868588738302532137E+00
    0.32872087408298727995E+00
    0.81648715209351263589E+00
    0.83262577777723267847E+00
    0.78672575017736542935E-01
    0.33100004182554293441E-01
    0.33488482656089210709E-01
    0.26689571386929378249E+00
    0.45896633094229498384E-01
    0.34913819350952911280E-01
    0.79467861382227034106E+00
    0.68743795309169541952E+00
    0.24656206028785354611E+00
    0.80996632212556740615E+00
    0.50150694094917436239E+00
    0.45457446361080899866E+00
    0.12099173359676625161E+00
    0.86977171247690596156E-01
    0.54290111151215472707E-01
    0.80781598025372558514E+00
    0.85127941967865283779E+00
    0.69168302147119664625E+00
    0.56242876100298273834E-01
    0.38949803487232453891E-01
    0.35728736671944212600E-01
    0.38364766885661004403E-01
    0.25572583289197554218E-01
    0.29994210872733365059E-01
    0.80634035356477395950E+00
    0.36060291554271195480E+00
    0.75773746435979005831E+00
    0.82784096543868590512E+00
    0.56147384301762082170E+00
    0.83137175386635975283E+00
    0.84801962911457873240E+00
    0.79020593289710860940E+00
    0.20430793081307282999E+00
    0.77202941103255939836E+00
    0.74966144784351806951E+00
    0.24491580685971381381E+00
    0.64974955655579824665E+00
    0.54783964625597103559E+00
    0.14925396109736377426E+00
    0.83638283492900122873E+00
    0.80308296540309875855E+00
    0.34891039636857405781E-01
    0.74520248214030790357E-01
    0.46892399350497354638E-01
    0.48453693555257137948E-01
    0.46691579331507709894E+00
    0.21790730382578343827E+00
    0.30422361505386717045E-01
    0.31043934057670679455E-01
    0.78088552022775392647E+00
    0.18793766678399265180E+00
    0.13697167194189069361E+00
    0.70758003450745643459E+00
    0.60522680197163183924E-01
    0.77993739446919418956E+00
    0.29914247750744310528E+00
    0.49807845072357789795E-01
    0.81476026938615508932E+00
    0.82125894913045660584E+00
    0.85521003370333614768E+00
    0.52738695855019523950E+00
    0.81373588751206793468E+00
    0.69573628642478180240E-01
    0.70526501788456028019E-01
    0.44156325605013718727E+00
    0.73165588730177355536E+00
    0.82999233225949620163E+00
    0.10970237856754967709E+00
    0.82868336727914071460E+00
    0.86331511379142955587E+00
    0.10277011665509543092E+00
    0.12377215493997578699E+00
    0.19590370503141812247E-01
    0.63319698876147193639E-02
    0.24311834342165050682E-01
    0.71989790756930207433E-02
    0.94609900502667196309E-01
    0.11748427391999553826E+00
    0.34826876462946920743E+00
    0.23025235599187426905E+00
    0.27895782262234450344E-01
    0.36950179968762326965E-01
    0.16378747623168693481E+00
    0.32630188169180468494E+00
    0.34425916961916502856E+00
    0.25329614391398713735E+00
    0.81270053971196687392E-01
    0.78261418194479799582E-02
    0.76914933850651557440E-02
    0.52266378636020545748E-02
    0.35671510260720578830E-02
    0.28507683678693726027E-02
    0.83280773453630763808E-02
    0.31660163929485431178E-01
    0.40896236182661950542E-01
    0.12825622192550262257E-01
    0.50284050529242341199E-02
    0.76258136018475843054E-02
    0.16829646580299034708E-01
    0.63368855056738684906E-01
    0.19582166325481359381E+00
    0.18130222928964565086E-02
    0.74164428618863926373E-03
    0.62375925124710134614E-03
    0.15284374870616608631E-02
    0.38263795222445297177E-02
    0.29446445159089000565E-01
    0.11227391884789693355E+00
