# vtk DataFile Version 3.0
LAPLACIEN  2D
ASCII
DATASET UNSTRUCTURED_GRID
 POINTS         391  float
  0.50371505999999999       0.50367786999999997        0.0000000000000000     
  0.29013556000000001       0.29014535000000002        0.0000000000000000     
  0.70165584999999997       0.71206597999999999        0.0000000000000000     
  0.70304188999999995       0.30176619999999998        0.0000000000000000     
  0.30920671999999999       0.71149227999999998        0.0000000000000000     
  0.79044983999999996       0.49884783999999999        0.0000000000000000     
  0.49102621000000002       0.20968644000000000        0.0000000000000000     
  0.49912957000000002       0.77208717000000004        0.0000000000000000     
  0.21724072999999999       0.48989389000000000        0.0000000000000000     
  0.83255933999999998       0.83046598000000005        0.0000000000000000     
  0.16646774000000000       0.17015694000000001        0.0000000000000000     
  0.83054514999999995       0.16736480000000001        0.0000000000000000     
  0.16953130999999999       0.83265739000000005        0.0000000000000000     
  0.42166445000000002       0.36345201999999999        0.0000000000000000     
  0.64462200999999997       0.56347807999999999        0.0000000000000000     
  0.35324633999999999       0.56311191000000005        0.0000000000000000     
  0.65456411000000003       0.84856860999999995        0.0000000000000000     
  0.35141477999999998       0.15563974000000000        0.0000000000000000     
  0.15290967000000000       0.35206625000000003        0.0000000000000000     
  0.82942241000000005       0.34936866000000000        0.0000000000000000     
  0.84390527000000004       0.64441694999999999        0.0000000000000000     
  0.63699174999999997       0.14284276000000001        0.0000000000000000     
  0.15620682999999999       0.64648446999999998        0.0000000000000000     
  0.36426062999999997       0.85756310999999996        0.0000000000000000     
  0.63489340999999999       0.40519052000000000        0.0000000000000000     
  0.52518872999999999       0.65957078000000002        0.0000000000000000     
  0.32158959999999998       0.42298103999999997        0.0000000000000000     
  0.58861710000000000       0.31711036999999997        0.0000000000000000     
  0.42078418000000001       0.69497151999999995        0.0000000000000000     
  0.48608786999999998       0.89334152000000000        0.0000000000000000     
   9.7084320000000002E-002  0.50000000000000000        0.0000000000000000     
  0.90291568000000000       0.50000000000000000        0.0000000000000000     
  0.51392453000000005       0.10668648999999999        0.0000000000000000     
  0.59792566999999996       0.73122754000000001        0.0000000000000000     
  0.74510058999999995       0.41124730999999998        0.0000000000000000     
  0.73212551999999997       0.90191560000000004        0.0000000000000000     
   9.7784830000000003E-002  0.26957329000000002        0.0000000000000000     
  0.26711221000000002        9.8671499999999995E-002   0.0000000000000000     
  0.90191560000000004       0.26787448000000003        0.0000000000000000     
  0.90118569000000004       0.73039821000000005        0.0000000000000000     
  0.73122947000000005        9.8017859999999998E-002   0.0000000000000000     
   9.8084400000000002E-002  0.73212551999999997        0.0000000000000000     
  0.26957329000000002       0.90221516999999996        0.0000000000000000     
  0.39283522999999998       0.25360379000000000        0.0000000000000000     
  0.74480864000000002       0.60495284999999999        0.0000000000000000     
  0.25505132000000003       0.60593640999999998        0.0000000000000000     
  0.52159297999999998       0.40671636000000000        0.0000000000000000     
  0.40768852000000000       0.47699891000000000        0.0000000000000000     
   9.1467049999999994E-002   9.1876959999999994E-002   0.0000000000000000     
  0.90842484999999995       0.90819225000000003        0.0000000000000000     
  0.90820104999999995        9.1566729999999999E-002   0.0000000000000000     
   9.1807449999999999E-002  0.90843574000000005        0.0000000000000000     
  0.27098960000000000       0.20527094000000001        0.0000000000000000     
  0.73457293999999995       0.79835387000000002        0.0000000000000000     
  0.79817773000000003       0.25713470999999999        0.0000000000000000     
  0.20747797000000001       0.72863946000000002        0.0000000000000000     
  0.20175195000000001       0.27583914999999998        0.0000000000000000     
  0.79603889000000005       0.72159035000000005        0.0000000000000000     
  0.71761666000000002       0.19748431999999999        0.0000000000000000     
  0.28462607000000001       0.80251899999999998        0.0000000000000000     
  0.69134598999999997       0.49261972999999998        0.0000000000000000     
  0.44720578999999999       0.58582935999999997        0.0000000000000000     
  0.24242269999999999       0.37228174000000003        0.0000000000000000     
  0.38265623999999998       0.93072131999999996        0.0000000000000000     
  0.60971754000000000       0.91988369000000003        0.0000000000000000     
   7.9163609999999995E-002  0.60979116000000000        0.0000000000000000     
  0.92010649000000000       0.61081183999999999        0.0000000000000000     
  0.61954008999999999        7.1530830000000004E-002   0.0000000000000000     
  0.91882012999999996       0.38917363999999999        0.0000000000000000     
  0.39086346000000000        8.0652249999999995E-002   0.0000000000000000     
   7.9183480000000001E-002  0.38966213000000000        0.0000000000000000     
  0.59114111999999996       0.49294315000000000        0.0000000000000000     
  0.63337980999999999       0.64485914000000000        0.0000000000000000     
  0.50012352000000004       0.29676539000000002        0.0000000000000000     
  0.82552601000000003       0.92753492000000004        0.0000000000000000     
  0.92774772999999999       0.82498556999999995        0.0000000000000000     
   7.1970870000000006E-002  0.17510291000000000        0.0000000000000000     
  0.17422821999999999        7.2635640000000001E-002   0.0000000000000000     
  0.82510813000000005        7.2134840000000006E-002   0.0000000000000000     
  0.92754665000000003       0.17446275999999999        0.0000000000000000     
  0.17501022999999999       0.92789951999999998        0.0000000000000000     
   7.2464680000000004E-002  0.82554053000000005        0.0000000000000000     
  0.30731587999999999       0.50885354999999999        0.0000000000000000     
  0.59033407999999998       0.22171178999999999        0.0000000000000000     
  0.40109191999999999       0.78725542000000004        0.0000000000000000     
  0.35420917000000002       0.63754104000000000        0.0000000000000000     
  0.15983976999999999       0.56665573000000002        0.0000000000000000     
  0.84108459999999996       0.56757886999999996        0.0000000000000000     
  0.83902096000000004       0.43344338999999998        0.0000000000000000     
  0.43230028999999998       0.16004268999999999        0.0000000000000000     
  0.57536027999999995       0.83041363999999995        0.0000000000000000     
  0.15771898000000001       0.42747892999999998        0.0000000000000000     
  0.34021692999999997       0.34221559000000001        0.0000000000000000     
  0.56002271999999997       0.57501117999999996        0.0000000000000000     
  0.65344329000000001       0.78147597999999996        0.0000000000000000     
   0.0000000000000000        0.0000000000000000        0.0000000000000000     
   1.0000000000000000        0.0000000000000000        0.0000000000000000     
   1.0000000000000000        1.0000000000000000        0.0000000000000000     
   0.0000000000000000        1.0000000000000000        0.0000000000000000     
  0.11111111000000000        0.0000000000000000        0.0000000000000000     
  0.22222222000000000        0.0000000000000000        0.0000000000000000     
  0.33333332999999998        0.0000000000000000        0.0000000000000000     
  0.44444444000000000        0.0000000000000000        0.0000000000000000     
  0.55555555999999995        0.0000000000000000        0.0000000000000000     
  0.66666667000000002        0.0000000000000000        0.0000000000000000     
  0.77777777999999997        0.0000000000000000        0.0000000000000000     
  0.88888889000000004        0.0000000000000000        0.0000000000000000     
   1.0000000000000000       0.11111111000000000        0.0000000000000000     
   1.0000000000000000       0.22222222000000000        0.0000000000000000     
   1.0000000000000000       0.33333332999999998        0.0000000000000000     
   1.0000000000000000       0.44444444000000000        0.0000000000000000     
   1.0000000000000000       0.55555555999999995        0.0000000000000000     
   1.0000000000000000       0.66666667000000002        0.0000000000000000     
   1.0000000000000000       0.77777777999999997        0.0000000000000000     
   1.0000000000000000       0.88888889000000004        0.0000000000000000     
  0.88888889000000004        1.0000000000000000        0.0000000000000000     
  0.77777777999999997        1.0000000000000000        0.0000000000000000     
  0.66666667000000002        1.0000000000000000        0.0000000000000000     
  0.55555555999999995        1.0000000000000000        0.0000000000000000     
  0.44444444000000000        1.0000000000000000        0.0000000000000000     
  0.33333332999999998        1.0000000000000000        0.0000000000000000     
  0.22222222000000000        1.0000000000000000        0.0000000000000000     
  0.11111111000000000        1.0000000000000000        0.0000000000000000     
   0.0000000000000000       0.11111111000000000        0.0000000000000000     
   0.0000000000000000       0.22222222000000000        0.0000000000000000     
[...]
 CELL_DATA         354
 SCALARS U float
 LOOKUP_TABLE default
    0.23224306065496368862E-01
    0.77723959901851602528E-01
    0.86191757262534085537E-01
    0.24751943405630261186E+00
    0.28520573518483936792E-01
    0.51987475830578583347E-01
    0.15115166747097466549E+00
    0.51470861878351523155E-01
    0.27057594381414051821E+00
    0.35855262153273043113E+00
    0.52651810622724981581E+00
    0.49618111239673867718E+00
    0.59404743522650838017E+00
    0.62753612125191371440E+00
    0.59237227903014177954E+00
    0.59888852084516219776E+00
    0.43381371374279031894E+00
    0.29926326893892352121E+00
    0.11408724960678152949E+00
    0.19273964975844956604E+00
    0.77661378490452542822E-01
    0.74032705467010767597E-01
    0.16861766216004439589E+00
    0.10439762365271222644E+00
    0.17013926683396679573E+00
    0.14831066161777844981E+00
    0.11489355029461732760E+00
    0.13400148493203414835E+00
    0.97138942652237686426E-01
    0.44817368245663631587E-01
    0.28731969508336830527E-01
    0.44161430107889997065E-01
    0.32096167882745961497E-01
    0.23239373910016514202E-01
    0.39352981215436684537E-01
    0.35377825948767115116E-01
    0.62400686062119556374E-01
    0.37743919869425074376E-01
    0.19865919968625161962E-01
    0.20325472151118288699E-01
    0.15022305323849554498E-01
    0.15263348845769866835E-01
    0.15559943549190633633E-01
    0.15058933011594777263E-01
    0.17261088471081893064E-01
    0.10314996490622310027E-01
    0.20243650467982522712E-01
    0.14308731333788885301E-01
    0.47388462142455886617E-01
    0.99149246711314614755E-01
    0.19371022170263135775E+00
    0.12562007394179161568E+00
    0.21270328326958527765E-01
    0.84391324077474835774E-02
    0.20989806130176036358E-01
    0.80686612320166242046E-02
    0.20857797652316822923E-01
    0.17484411796869863548E-01
    0.23529962955832681853E-01
    0.17567186993698240272E-01
    0.23862012219264375906E-01
    0.17374302853566093996E-01
    0.17287993645086152661E-01
    0.18593973845203701917E-01
    0.34648724315216289371E-01
    0.45679474967723045220E-01
    0.79376297156952421719E-01
    0.73340643848155875895E-01
    0.73329505068250178113E+00
    0.84958583423732902951E+00
    0.86029283381327281699E+00
    0.81511911286536031795E+00
    0.86221959573522100051E+00
    0.80893895753353783906E+00
    0.82830645832780613880E+00
    0.82508375444084458561E+00
    0.82491957800347393004E+00
    0.84512712313451343604E+00
    0.59094339511556626121E+00
    0.72487437318609160286E+00
    0.20907406480674625704E+00
    0.42591350843846231822E+00
    0.78653202522522480677E+00
    0.31251902956787380727E+00
    0.69202424394349582037E+00
    0.19897405856270664049E+00
    0.71256901477384809729E-01
    0.49391903759446675881E+00
    0.59936573453051178451E+00
    0.34249772620781604449E+00
    0.12221261444308008370E+00
    0.36120741999318561888E+00
    0.44261598265618690151E+00
    0.15197577111245644255E+00
    0.10406033259225208609E+00
    0.11054108513237854983E+00
    0.60758571484834666965E+00
    0.75323045490285045478E+00
    0.83359447017340637665E+00
    0.83803201107446834150E+00
    0.84909226806540161192E+00
    0.80637079244026543812E+00
    0.83683941499700553734E+00
    0.50449801766885504772E+00
    0.47290845109597279272E+00
    0.18674608491428307255E+00
    0.21273565740139821489E+00
    0.66189904459141724047E+00
    0.64299933351935401049E+00
    0.48643189425388516645E+00
    0.10381008260385729547E+00
    0.35759051323999435645E+00
    0.15876998484734197725E+00
    0.14387049377736377265E+00
    0.80729208262002938312E+00
    0.21692021172047137867E+00
    0.55213740350567253046E+00
    0.75872444035321717770E+00
    0.79449605016549840197E+00
    0.24980433211757935297E+00
    0.48472914847158965479E+00
    0.37132430396256500826E-01
    0.52309729422274915678E-01
    0.46757767911565759067E-01
    0.79491051133794177197E-01
    0.10190568121505140520E+00
    0.38555583151008848697E-01
    0.43267595169685008072E-01
    0.11581932742525929969E+00
    0.47779320390229984561E+00
    0.96642971064903909761E-01
    0.66635269452201661977E+00
    0.44368809829722116733E+00
    0.83763061163045049451E-01
    0.16389172541396199168E+00
    0.76382695506102815663E+00
    0.84111556155070432705E+00
    0.50852221560097399244E+00
    0.85006531351663150442E+00
    0.81550768277201379775E+00
    0.76648789504657177662E+00
    0.50514080577142728146E+00
    0.28574480817605354271E-01
    0.25428992795062745763E-01
    0.27198796271630826249E-01
    0.45656231395935067963E-01
    0.31733725726147889168E-01
    0.24926017714649140178E-01
    0.25483133006447066665E-01
    0.81245486077599116115E+00
    0.71322911232511321256E+00
    0.39536268375631583583E+00
    0.71530268703077004577E+00
    0.33910148724610378324E+00
    0.81256867216987860303E+00
    0.84744085323940221421E+00
    0.85582888347306940169E+00
    0.83935601679511595563E+00
    0.86955312564550446552E+00
    0.84958916178612398085E+00
    0.77704474811602242124E+00
    0.80496552145435984471E+00
    0.84081138053149273581E+00
    0.81295633137026279691E+00
    0.83880540333720521318E+00
    0.52695726751725499581E-01
    0.94895815979242417737E-01
    0.52421327775369556956E-01
    0.85813526567616746354E-01
    0.97156512638733441567E-01
    0.81767200838331532964E+00
    0.83231297859109643067E+00
    0.85794198592732884290E+00
    0.84220527325625049730E+00
    0.85343973110390014547E+00
    0.15923706372165971623E+00
    0.51529355793226094828E+00
    0.51942328983454622016E+00
    0.11256188625884415433E+00
    0.22965654286041062293E+00
    0.81530307459925444036E+00
    0.76574765287121215884E+00
    0.84962580039372248564E+00
    0.74143524166323926394E+00
    0.85179265027690109768E+00
    0.15793537003769361760E+00
    0.62082663901940915441E+00
    0.29528192325272217822E+00
    0.25030477677841911355E+00
    0.58499453117660782375E+00
    0.78312498454037693385E+00
    0.82435283117786406493E+00
    0.63336991424746491575E+00
    0.86755512116318866944E+00
    0.47641689555971222791E+00
    0.55285362316133714045E-01
    0.16213994332721209934E+00
    0.72453215995339229072E-01
    0.57042851600141046553E-01
    0.84471195667333881518E-01
    0.24691282681752826228E-01
    0.24695182563355969063E-01
    0.30505820720045498384E-01
    0.18499513394384037995E-01
    0.32760307249216295833E-01
    0.94743173359923729682E-01
    0.51811379350225472695E+00
    0.22975656261406604552E+00
    0.68796579107229005601E+00
    0.52140819262800452982E+00
    0.77143591153090951273E+00
    0.67851259678861752800E+00
    0.84557149074061555005E+00
    0.85587792164353271307E+00
    0.85618463838736913463E+00
    0.83979894347902017682E+00
    0.82242272927436010921E+00
    0.84712329524046947604E+00
    0.81759215004792507031E+00
    0.96828565759230184051E-01
    0.34045729588839356017E-01
    0.51369436422447921353E-01
    0.78535798403696677195E+00
    0.20816411538157472694E+00
    0.68173726635927500705E+00
    0.22117015784743811885E-01
    0.28416253358772396165E-01
    0.37058100688413468660E-01
    0.61681603278689767222E-01
    0.40459541429601592055E-01
    0.40799025072788097646E-01
    0.67630390821032906890E-01
    0.15249872051738400103E+00
    0.27770147561655195156E+00
    0.41195277355849246881E+00
    0.61489292578858545379E+00
    0.70594203482143802475E+00
    0.85370444863467653818E+00
    0.79295756153480723150E+00
    0.40886131985325718796E+00
    0.76925666607008147402E+00
    0.77907841739359573463E+00
    0.16443411256650580787E+00
    0.30579127249388737830E+00
    0.81253894842709772917E+00
    0.83740049763509349923E+00
    0.70399065269230509667E-01
    0.27696443211221780795E-01
    0.28566496059902395793E-01
    0.25065289646166716286E+00
    0.38207703129577351431E-01
    0.28639600181571783083E-01
    0.79016634529407359100E+00
    0.67343383418309432642E+00
    0.23147171096902224852E+00
    0.80895515770406101197E+00
    0.48643241562436717595E+00
    0.43983219772781989576E+00
    0.11069745017991332314E+00
    0.74416518591034944152E-01
    0.47521105296089223569E-01
    0.80295921059525188213E+00
    0.85565508919492472284E+00
    0.68445127297352281737E+00
    0.49405296156876395142E-01
    0.33129385951342009420E-01
    0.31051519355538115957E-01
    0.32873362619240203975E-01
    0.21482065532102127825E-01
    0.25794835231091540334E-01
    0.81081240348686489661E+00
    0.33705824041828991167E+00
    0.74779487895244023399E+00
    0.82913527645062790050E+00
    0.54555430730248821725E+00
    0.83610594166213791922E+00
    0.85425071726476109468E+00
    0.79264433094962494231E+00
    0.19005648762896923398E+00
    0.76994142793422526427E+00
    0.74419835066942419122E+00
    0.22733065677967220775E+00
    0.63290133364823941697E+00
    0.52495094495260197220E+00
    0.13100812239498818568E+00
    0.84126363869911913174E+00
    0.81273422285794505449E+00
    0.28547594211579239293E-01
    0.64873643677554992948E-01
    0.41633637030768014253E-01
    0.42801173415779006359E-01
    0.44937264458324432947E+00
    0.19576337088173773049E+00
    0.26360125714196724206E-01
    0.26985105519601034624E-01
    0.77492180331040372288E+00
    0.17161424094677771301E+00
    0.12102358779344365991E+00
    0.69517950330262956449E+00
    0.52860007215485615983E-01
    0.77716296487529279435E+00
    0.27275918185030656460E+00
    0.42175647662787751901E-01
    0.81202650989093516642E+00
    0.83012602078512132131E+00
    0.86095847091736477097E+00
    0.50637539710640566692E+00
    0.81837972560852800807E+00
    0.61226779278226547976E-01
    0.62067759206114923864E-01
    0.41178571889827109143E+00
    0.72387747266276936120E+00
    0.83243736706047377627E+00
    0.99016293492479617866E-01
    0.83432421565477687952E+00
    0.86976906445264068335E+00
    0.84830659241264760873E-01
    0.10995478960444750316E+00
    0.15541529307581561023E-01
    0.46791794493205437697E-02
    0.19443328572074029814E-01
    0.50870658037600758467E-02
    0.90135130899623008838E-01
    0.11222801936340125184E+00
    0.35115195911374275095E+00
    0.22945672976765424389E+00
    0.22527594169552359743E-01
    0.31212342921029201381E-01
    0.15462357183029812324E+00
    0.31324178215443854167E+00
    0.33256619811826493294E+00
    0.24356028733961060384E+00
    0.70755239406288278348E-01
    0.55917118252635121187E-02
    0.55458570000762163338E-02
    0.36350495783356927097E-02
    0.23870916933399150342E-02
    0.19500720557097451537E-02
    0.64026768923959630556E-02
    0.27152593941371698516E-01
    0.36075347130499015036E-01
    0.10229874028129691196E-01
    0.36089034499230767707E-02
    0.57283228818088898979E-02
    0.13592374567262336879E-01
    0.58905281136363209227E-01
    0.19184564969160788905E+00
    0.11952071939522850019E-02
    0.44367728580695309703E-03
    0.37010021167980871552E-03
    0.98888382745856333658E-03
    0.27495134434648311333E-02
    0.25997034597027381120E-01
    0.10645870264731607802E+00
