# vtk DataFile Version 3.0
LAPLACIEN  2D
ASCII
DATASET UNSTRUCTURED_GRID
 POINTS         391  float
  0.50371505999999999       0.50367786999999997        0.0000000000000000     
  0.29013556000000001       0.29014535000000002        0.0000000000000000     
  0.70165584999999997       0.71206597999999999        0.0000000000000000     
  0.70304188999999995       0.30176619999999998        0.0000000000000000     
  0.30920671999999999       0.71149227999999998        0.0000000000000000     
  0.79044983999999996       0.49884783999999999        0.0000000000000000     
  0.49102621000000002       0.20968644000000000        0.0000000000000000     
  0.49912957000000002       0.77208717000000004        0.0000000000000000     
  0.21724072999999999       0.48989389000000000        0.0000000000000000     
  0.83255933999999998       0.83046598000000005        0.0000000000000000     
  0.16646774000000000       0.17015694000000001        0.0000000000000000     
  0.83054514999999995       0.16736480000000001        0.0000000000000000     
  0.16953130999999999       0.83265739000000005        0.0000000000000000     
  0.42166445000000002       0.36345201999999999        0.0000000000000000     
  0.64462200999999997       0.56347807999999999        0.0000000000000000     
  0.35324633999999999       0.56311191000000005        0.0000000000000000     
  0.65456411000000003       0.84856860999999995        0.0000000000000000     
  0.35141477999999998       0.15563974000000000        0.0000000000000000     
  0.15290967000000000       0.35206625000000003        0.0000000000000000     
  0.82942241000000005       0.34936866000000000        0.0000000000000000     
  0.84390527000000004       0.64441694999999999        0.0000000000000000     
  0.63699174999999997       0.14284276000000001        0.0000000000000000     
  0.15620682999999999       0.64648446999999998        0.0000000000000000     
  0.36426062999999997       0.85756310999999996        0.0000000000000000     
  0.63489340999999999       0.40519052000000000        0.0000000000000000     
  0.52518872999999999       0.65957078000000002        0.0000000000000000     
  0.32158959999999998       0.42298103999999997        0.0000000000000000     
  0.58861710000000000       0.31711036999999997        0.0000000000000000     
  0.42078418000000001       0.69497151999999995        0.0000000000000000     
  0.48608786999999998       0.89334152000000000        0.0000000000000000     
   9.7084320000000002E-002  0.50000000000000000        0.0000000000000000     
  0.90291568000000000       0.50000000000000000        0.0000000000000000     
  0.51392453000000005       0.10668648999999999        0.0000000000000000     
  0.59792566999999996       0.73122754000000001        0.0000000000000000     
  0.74510058999999995       0.41124730999999998        0.0000000000000000     
  0.73212551999999997       0.90191560000000004        0.0000000000000000     
   9.7784830000000003E-002  0.26957329000000002        0.0000000000000000     
  0.26711221000000002        9.8671499999999995E-002   0.0000000000000000     
  0.90191560000000004       0.26787448000000003        0.0000000000000000     
  0.90118569000000004       0.73039821000000005        0.0000000000000000     
  0.73122947000000005        9.8017859999999998E-002   0.0000000000000000     
   9.8084400000000002E-002  0.73212551999999997        0.0000000000000000     
  0.26957329000000002       0.90221516999999996        0.0000000000000000     
  0.39283522999999998       0.25360379000000000        0.0000000000000000     
  0.74480864000000002       0.60495284999999999        0.0000000000000000     
  0.25505132000000003       0.60593640999999998        0.0000000000000000     
  0.52159297999999998       0.40671636000000000        0.0000000000000000     
  0.40768852000000000       0.47699891000000000        0.0000000000000000     
   9.1467049999999994E-002   9.1876959999999994E-002   0.0000000000000000     
  0.90842484999999995       0.90819225000000003        0.0000000000000000     
  0.90820104999999995        9.1566729999999999E-002   0.0000000000000000     
   9.1807449999999999E-002  0.90843574000000005        0.0000000000000000     
  0.27098960000000000       0.20527094000000001        0.0000000000000000     
  0.73457293999999995       0.79835387000000002        0.0000000000000000     
  0.79817773000000003       0.25713470999999999        0.0000000000000000     
  0.20747797000000001       0.72863946000000002        0.0000000000000000     
  0.20175195000000001       0.27583914999999998        0.0000000000000000     
  0.79603889000000005       0.72159035000000005        0.0000000000000000     
  0.71761666000000002       0.19748431999999999        0.0000000000000000     
  0.28462607000000001       0.80251899999999998        0.0000000000000000     
  0.69134598999999997       0.49261972999999998        0.0000000000000000     
  0.44720578999999999       0.58582935999999997        0.0000000000000000     
  0.24242269999999999       0.37228174000000003        0.0000000000000000     
  0.38265623999999998       0.93072131999999996        0.0000000000000000     
  0.60971754000000000       0.91988369000000003        0.0000000000000000     
   7.9163609999999995E-002  0.60979116000000000        0.0000000000000000     
  0.92010649000000000       0.61081183999999999        0.0000000000000000     
  0.61954008999999999        7.1530830000000004E-002   0.0000000000000000     
  0.91882012999999996       0.38917363999999999        0.0000000000000000     
  0.39086346000000000        8.0652249999999995E-002   0.0000000000000000     
   7.9183480000000001E-002  0.38966213000000000        0.0000000000000000     
  0.59114111999999996       0.49294315000000000        0.0000000000000000     
  0.63337980999999999       0.64485914000000000        0.0000000000000000     
  0.50012352000000004       0.29676539000000002        0.0000000000000000     
  0.82552601000000003       0.92753492000000004        0.0000000000000000     
  0.92774772999999999       0.82498556999999995        0.0000000000000000     
   7.1970870000000006E-002  0.17510291000000000        0.0000000000000000     
  0.17422821999999999        7.2635640000000001E-002   0.0000000000000000     
  0.82510813000000005        7.2134840000000006E-002   0.0000000000000000     
  0.92754665000000003       0.17446275999999999        0.0000000000000000     
  0.17501022999999999       0.92789951999999998        0.0000000000000000     
   7.2464680000000004E-002  0.82554053000000005        0.0000000000000000     
  0.30731587999999999       0.50885354999999999        0.0000000000000000     
  0.59033407999999998       0.22171178999999999        0.0000000000000000     
  0.40109191999999999       0.78725542000000004        0.0000000000000000     
  0.35420917000000002       0.63754104000000000        0.0000000000000000     
  0.15983976999999999       0.56665573000000002        0.0000000000000000     
  0.84108459999999996       0.56757886999999996        0.0000000000000000     
  0.83902096000000004       0.43344338999999998        0.0000000000000000     
  0.43230028999999998       0.16004268999999999        0.0000000000000000     
  0.57536027999999995       0.83041363999999995        0.0000000000000000     
  0.15771898000000001       0.42747892999999998        0.0000000000000000     
  0.34021692999999997       0.34221559000000001        0.0000000000000000     
  0.56002271999999997       0.57501117999999996        0.0000000000000000     
  0.65344329000000001       0.78147597999999996        0.0000000000000000     
   0.0000000000000000        0.0000000000000000        0.0000000000000000     
   1.0000000000000000        0.0000000000000000        0.0000000000000000     
   1.0000000000000000        1.0000000000000000        0.0000000000000000     
   0.0000000000000000        1.0000000000000000        0.0000000000000000     
  0.11111111000000000        0.0000000000000000        0.0000000000000000     
  0.22222222000000000        0.0000000000000000        0.0000000000000000     
  0.33333332999999998        0.0000000000000000        0.0000000000000000     
  0.44444444000000000        0.0000000000000000        0.0000000000000000     
  0.55555555999999995        0.0000000000000000        0.0000000000000000     
  0.66666667000000002        0.0000000000000000        0.0000000000000000     
  0.77777777999999997        0.0000000000000000        0.0000000000000000     
  0.88888889000000004        0.0000000000000000        0.0000000000000000     
   1.0000000000000000       0.11111111000000000        0.0000000000000000     
   1.0000000000000000       0.22222222000000000        0.0000000000000000     
   1.0000000000000000       0.33333332999999998        0.0000000000000000     
   1.0000000000000000       0.44444444000000000        0.0000000000000000     
   1.0000000000000000       0.55555555999999995        0.0000000000000000     
   1.0000000000000000       0.66666667000000002        0.0000000000000000     
   1.0000000000000000       0.77777777999999997        0.0000000000000000     
   1.0000000000000000       0.88888889000000004        0.0000000000000000     
  0.88888889000000004        1.0000000000000000        0.0000000000000000     
  0.77777777999999997        1.0000000000000000        0.0000000000000000     
  0.66666667000000002        1.0000000000000000        0.0000000000000000     
  0.55555555999999995        1.0000000000000000        0.0000000000000000     
  0.44444444000000000        1.0000000000000000        0.0000000000000000     
  0.33333332999999998        1.0000000000000000        0.0000000000000000     
  0.22222222000000000        1.0000000000000000        0.0000000000000000     
  0.11111111000000000        1.0000000000000000        0.0000000000000000     
   0.0000000000000000       0.11111111000000000        0.0000000000000000     
   0.0000000000000000       0.22222222000000000        0.0000000000000000     
[...]
 CELL_DATA         354
 SCALARS U float
 LOOKUP_TABLE default
    0.24322060350059619693E-01
    0.79321493051424274423E-01
    0.87464633666294089309E-01
    0.24793036243673852170E+00
    0.29867885685988946470E-01
    0.53837153659172000408E-01
    0.15207435408527236742E+00
    0.53299383895633704877E-01
    0.27448670224512072835E+00
    0.36211939914631846582E+00
    0.52827415698378565878E+00
    0.49732077231770382975E+00
    0.59545050032383217697E+00
    0.62834398615504083452E+00
    0.59277102855952168436E+00
    0.59990762234599481761E+00
    0.43603698966768178469E+00
    0.30272990537265997979E+00
    0.11722257792184383185E+00
    0.19524627791682416800E+00
    0.79272564228632075300E-01
    0.75772927080729898797E-01
    0.17001974192894636628E+00
    0.10676815081225350668E+00
    0.17183894492946988342E+00
    0.15056250833986639659E+00
    0.11713138599826448949E+00
    0.13619255151199352594E+00
    0.98410688989855291120E-01
    0.46322334911583877559E-01
    0.29769883210279762809E-01
    0.45663049756678772417E-01
    0.33333255175875965703E-01
    0.24129903807572915947E-01
    0.40639612906470536091E-01
    0.36582326594685077303E-01
    0.63921340418924207927E-01
    0.38885190367866931394E-01
    0.20794274177557133670E-01
    0.21217554197384001086E-01
    0.15714356520439943382E-01
    0.16056733968666643542E-01
    0.16313900281023595989E-01
    0.15839715918019924706E-01
    0.18114884947899544815E-01
    0.10902903505174078164E-01
    0.21105773013168935975E-01
    0.15047990827789398463E-01
    0.48373528507908686302E-01
    0.10026046009223693600E+00
    0.19422347520146016064E+00
    0.12646486152595343144E+00
    0.22241325537070998075E-01
    0.90603258249714099110E-02
    0.21905929544260328845E-01
    0.86586635895968232235E-02
    0.21758190872204322824E-01
    0.18402881614671479787E-01
    0.24499657058019954498E-01
    0.18495146286173339001E-01
    0.24864068156903763873E-01
    0.18202750920702372162E-01
    0.17960813387646754058E-01
    0.19486389198499050324E-01
    0.35749672542286621557E-01
    0.47040409638628620514E-01
    0.80688640444466053214E-01
    0.74459594223028405247E-01
    0.73667797969652537571E+00
    0.84880196151659370596E+00
    0.85920965741858679188E+00
    0.81614970001519615561E+00
    0.86103700637365998549E+00
    0.80801720331688375865E+00
    0.82647144186113863373E+00
    0.82432606723603296661E+00
    0.82368519846452092903E+00
    0.84394014420850227420E+00
    0.59476478064045679162E+00
    0.72524590930263888033E+00
    0.21313246716661049529E+00
    0.42958490910091795545E+00
    0.78568653413595623825E+00
    0.31866709494051792539E+00
    0.69526056567311356194E+00
    0.20523423515851130228E+00
    0.73501468242176806744E-01
    0.49911257118628604701E+00
    0.60411955034276776377E+00
    0.34809154993470253769E+00
    0.12659766381459294782E+00
    0.36686858278425760194E+00
    0.44861279366657785816E+00
    0.15662972297152838452E+00
    0.10629641486693594543E+00
    0.11372372455194110219E+00
    0.61372006418093083546E+00
    0.75358488828087988320E+00
    0.83243552408913390472E+00
    0.83665235992382358532E+00
    0.84806384476145413309E+00
    0.80529703489243831260E+00
    0.83520572688232719294E+00
    0.50850889381857544702E+00
    0.47795356495943985831E+00
    0.19086397637769716984E+00
    0.21714780405812614261E+00
    0.66727621133697245792E+00
    0.64745082610688287073E+00
    0.49107689678513100073E+00
    0.10579163589196308171E+00
    0.36266827035741056040E+00
    0.16291899601007028831E+00
    0.14750819324454772508E+00
    0.80651834593887561375E+00
    0.21998599740448526729E+00
    0.55658662307825579330E+00
    0.75964592753251636292E+00
    0.79508165735535629715E+00
    0.25373148691796759691E+00
    0.48987221516570766955E+00
    0.38500126514492853669E-01
    0.54112267764247330704E-01
    0.48168724727861648993E-01
    0.81682000863124396006E-01
    0.10393060136258411297E+00
    0.39839242728862959975E-01
    0.44690021584361132312E-01
    0.11945373622166427507E+00
    0.48279075261784132334E+00
    0.98866836842864999624E-01
    0.67083921251408584752E+00
    0.44877243301524505359E+00
    0.85628255180628165544E-01
    0.16844041166629064588E+00
    0.76496643875817360581E+00
    0.84017997835597613143E+00
    0.51325349623806337807E+00
    0.84940689198177266039E+00
    0.81538773825650867622E+00
    0.76781683107145304312E+00
    0.50955236983836083020E+00
    0.29647062722507611099E-01
    0.26388928093273762709E-01
    0.28252921639186533848E-01
    0.47176040034252367250E-01
    0.32984355624008497576E-01
    0.25920344497788846277E-01
    0.26473492200126919754E-01
    0.81208016603566413050E+00
    0.71679164981322629480E+00
    0.40085765027418368556E+00
    0.71814647205008230735E+00
    0.34462191441600453778E+00
    0.81232335892411100531E+00
    0.84606725538231120076E+00
    0.85480397008083908172E+00
    0.83822311440964702989E+00
    0.86806796899773919218E+00
    0.84791885811890410629E+00
    0.77612002300032567614E+00
    0.80266822190432807194E+00
    0.83917775544231043572E+00
    0.81013425740784028584E+00
    0.83712090793343429951E+00
    0.54635502195346054288E-01
    0.97680959180724863389E-01
    0.54438269028158049745E-01
    0.88498143477555565872E-01
    0.99680413021984382027E-01
    0.81747312683150075152E+00
    0.83172614674968003978E+00
    0.85653016883536292614E+00
    0.84158694867918937277E+00
    0.85222572470237856201E+00
    0.16332246338367498173E+00
    0.51990096319736367469E+00
    0.52461878024865660208E+00
    0.11526872498561006875E+00
    0.23568797471023555934E+00
    0.81631842171600077496E+00
    0.76695158568464916193E+00
    0.84888780144758424484E+00
    0.74313907002956791636E+00
    0.85071204466620886642E+00
    0.16036418462569493326E+00
    0.62410287180896306669E+00
    0.29996257385816221808E+00
    0.25882461728623412656E+00
    0.59198627263426595313E+00
    0.78548271913736789074E+00
    0.82578806349357125605E+00
    0.63935999489701167420E+00
    0.86740307230529678506E+00
    0.48429436724018559701E+00
    0.57047722732997664663E-01
    0.16363630042034416068E+00
    0.74667272023965627903E-01
    0.59059886560387096777E-01
    0.86921314608454036676E-01
    0.25833120194626559007E-01
    0.25783328456895529546E-01
    0.31850735585934632221E-01
    0.19438506772642999421E-01
    0.34232308575985512245E-01
    0.97311206159045454678E-01
    0.52364965313005773506E+00
    0.23627916599568501987E+00
    0.69302291177301678093E+00
    0.52701506067064141092E+00
    0.77210445201464128484E+00
    0.68041728666810552539E+00
    0.84401311889382302223E+00
    0.85422620269895932488E+00
    0.85468564244833200583E+00
    0.83878498491510333768E+00
    0.82122578847524874135E+00
    0.84565180664658967657E+00
    0.81608346910204265789E+00
    0.98962041973898878799E-01
    0.36120632105467516404E-01
    0.53590614567813978086E-01
    0.78433618599897769741E+00
    0.21205823325187844741E+00
    0.68402504307501632574E+00
    0.23179008371064426658E-01
    0.29755588547817062028E-01
    0.38732823424999195117E-01
    0.63668423886026045966E-01
    0.42206302188897593108E-01
    0.42655970502200747652E-01
    0.69767847972066907025E-01
    0.15714627563964775336E+00
    0.28049139794211758181E+00
    0.41675298474750127609E+00
    0.61584503868723305953E+00
    0.70799982697280183785E+00
    0.85339919023885368876E+00
    0.79303961245255494283E+00
    0.41364657701215523655E+00
    0.77058866947135407077E+00
    0.77827024357506568997E+00
    0.16777731539974752306E+00
    0.31163139037090781258E+00
    0.81362200588566091497E+00
    0.83631728240050695611E+00
    0.72409559504047746326E-01
    0.28965742839757363525E-01
    0.29722318869742993946E-01
    0.25458799713342955551E+00
    0.40003646635237526119E-01
    0.30091079660609823532E-01
    0.79141948280101026558E+00
    0.67702851009974385210E+00
    0.23515256855639130040E+00
    0.80926434723169549112E+00
    0.49018196587700246791E+00
    0.44356815701687846154E+00
    0.11318260711743970137E+00
    0.77308268584985517791E-01
    0.49134433128274007663E-01
    0.80446169079798579560E+00
    0.85465171226143687999E+00
    0.68637050217604178570E+00
    0.51041419343745252080E-01
    0.34498681410993346785E-01
    0.32157063085096575239E-01
    0.34162871045828470395E-01
    0.22430645277525848580E-01
    0.26780079443209776208E-01
    0.80983172188372287703E+00
    0.34271855755829050416E+00
    0.75032740779823081656E+00
    0.82887400616867201730E+00
    0.54971000047109774833E+00
    0.83499977196144836711E+00
    0.85277650185689568563E+00
    0.79230906726297123388E+00
    0.19353876977916351088E+00
    0.77065515462699774041E+00
    0.74578121648248141273E+00
    0.23160003175829996236E+00
    0.63712805667723459990E+00
    0.53053814894549211623E+00
    0.13528898528097951792E+00
    0.84010820461703783479E+00
    0.81047982176221788908E+00
    0.30023220848935942145E-01
    0.67204562974565909550E-01
    0.42881950271727566071E-01
    0.44141758726708391070E-01
    0.45374597066973521020E+00
    0.20107622295770471998E+00
    0.27315681338114836119E-01
    0.27941648195473466759E-01
    0.77655938294289839074E+00
    0.17565704222511918653E+00
    0.12477479630678908751E+00
    0.69830148288850835137E+00
    0.54690461915380461644E-01
    0.77801890266557505171E+00
    0.27891813863059489176E+00
    0.43970147064886361266E-01
    0.81283524131772877386E+00
    0.82813057942759682462E+00
    0.85959109847790859948E+00
    0.51163095548632597787E+00
    0.81728867180962672112E+00
    0.63249532347394193943E-01
    0.64092368582609415828E-01
    0.41906381073293041961E+00
    0.72588235670672696109E+00
    0.83190135535400433486E+00
    0.10160151875644915509E+00
    0.83302018092411178607E+00
    0.86824482031374128344E+00
    0.89017371883657436804E-01
    0.11325503567451779274E+00
    0.16469134697830591779E-01
    0.50457793275069237268E-02
    0.20557534950404722507E-01
    0.55479828931816925833E-02
    0.91207510766132357527E-01
    0.11350986188746020611E+00
    0.35053016042009027542E+00
    0.22967462395544988030E+00
    0.23764030361809053427E-01
    0.32489799249663678382E-01
    0.15681755594014204491E+00
    0.31644039026000941872E+00
    0.33542670461548207417E+00
    0.24589245921462826727E+00
    0.73214299516487751918E-01
    0.60815221023658881314E-02
    0.60176511731384997941E-02
    0.39778160444596828010E-02
    0.26359981815070742013E-02
    0.21417982864614555638E-02
    0.68341339167098764593E-02
    0.28207789450621290755E-01
    0.37214252773551184661E-01
    0.10822877014512974000E-01
    0.39207195651202583417E-02
    0.61526501426261434938E-02
    0.14336394441107892100E-01
    0.59971150580416930642E-01
    0.19285915344901127799E+00
    0.13256055845774661773E-02
    0.50434736217920843240E-03
    0.42150152493339863077E-03
    0.11022218809530342793E-02
    0.29835110552844730687E-02
    0.26811329812301536862E-01
    0.10788059286242054902E+00
