# vtk DataFile Version 3.0
LAPLACIEN  2D
ASCII
DATASET UNSTRUCTURED_GRID
 POINTS         391  float
  0.50371505999999999       0.50367786999999997        0.0000000000000000     
  0.29013556000000001       0.29014535000000002        0.0000000000000000     
  0.70165584999999997       0.71206597999999999        0.0000000000000000     
  0.70304188999999995       0.30176619999999998        0.0000000000000000     
  0.30920671999999999       0.71149227999999998        0.0000000000000000     
  0.79044983999999996       0.49884783999999999        0.0000000000000000     
  0.49102621000000002       0.20968644000000000        0.0000000000000000     
  0.49912957000000002       0.77208717000000004        0.0000000000000000     
  0.21724072999999999       0.48989389000000000        0.0000000000000000     
  0.83255933999999998       0.83046598000000005        0.0000000000000000     
  0.16646774000000000       0.17015694000000001        0.0000000000000000     
  0.83054514999999995       0.16736480000000001        0.0000000000000000     
  0.16953130999999999       0.83265739000000005        0.0000000000000000     
  0.42166445000000002       0.36345201999999999        0.0000000000000000     
  0.64462200999999997       0.56347807999999999        0.0000000000000000     
  0.35324633999999999       0.56311191000000005        0.0000000000000000     
  0.65456411000000003       0.84856860999999995        0.0000000000000000     
  0.35141477999999998       0.15563974000000000        0.0000000000000000     
  0.15290967000000000       0.35206625000000003        0.0000000000000000     
  0.82942241000000005       0.34936866000000000        0.0000000000000000     
  0.84390527000000004       0.64441694999999999        0.0000000000000000     
  0.63699174999999997       0.14284276000000001        0.0000000000000000     
  0.15620682999999999       0.64648446999999998        0.0000000000000000     
  0.36426062999999997       0.85756310999999996        0.0000000000000000     
  0.63489340999999999       0.40519052000000000        0.0000000000000000     
  0.52518872999999999       0.65957078000000002        0.0000000000000000     
  0.32158959999999998       0.42298103999999997        0.0000000000000000     
  0.58861710000000000       0.31711036999999997        0.0000000000000000     
  0.42078418000000001       0.69497151999999995        0.0000000000000000     
  0.48608786999999998       0.89334152000000000        0.0000000000000000     
   9.7084320000000002E-002  0.50000000000000000        0.0000000000000000     
  0.90291568000000000       0.50000000000000000        0.0000000000000000     
  0.51392453000000005       0.10668648999999999        0.0000000000000000     
  0.59792566999999996       0.73122754000000001        0.0000000000000000     
  0.74510058999999995       0.41124730999999998        0.0000000000000000     
  0.73212551999999997       0.90191560000000004        0.0000000000000000     
   9.7784830000000003E-002  0.26957329000000002        0.0000000000000000     
  0.26711221000000002        9.8671499999999995E-002   0.0000000000000000     
  0.90191560000000004       0.26787448000000003        0.0000000000000000     
  0.90118569000000004       0.73039821000000005        0.0000000000000000     
  0.73122947000000005        9.8017859999999998E-002   0.0000000000000000     
   9.8084400000000002E-002  0.73212551999999997        0.0000000000000000     
  0.26957329000000002       0.90221516999999996        0.0000000000000000     
  0.39283522999999998       0.25360379000000000        0.0000000000000000     
  0.74480864000000002       0.60495284999999999        0.0000000000000000     
  0.25505132000000003       0.60593640999999998        0.0000000000000000     
  0.52159297999999998       0.40671636000000000        0.0000000000000000     
  0.40768852000000000       0.47699891000000000        0.0000000000000000     
   9.1467049999999994E-002   9.1876959999999994E-002   0.0000000000000000     
  0.90842484999999995       0.90819225000000003        0.0000000000000000     
  0.90820104999999995        9.1566729999999999E-002   0.0000000000000000     
   9.1807449999999999E-002  0.90843574000000005        0.0000000000000000     
  0.27098960000000000       0.20527094000000001        0.0000000000000000     
  0.73457293999999995       0.79835387000000002        0.0000000000000000     
  0.79817773000000003       0.25713470999999999        0.0000000000000000     
  0.20747797000000001       0.72863946000000002        0.0000000000000000     
  0.20175195000000001       0.27583914999999998        0.0000000000000000     
  0.79603889000000005       0.72159035000000005        0.0000000000000000     
  0.71761666000000002       0.19748431999999999        0.0000000000000000     
  0.28462607000000001       0.80251899999999998        0.0000000000000000     
  0.69134598999999997       0.49261972999999998        0.0000000000000000     
  0.44720578999999999       0.58582935999999997        0.0000000000000000     
  0.24242269999999999       0.37228174000000003        0.0000000000000000     
  0.38265623999999998       0.93072131999999996        0.0000000000000000     
  0.60971754000000000       0.91988369000000003        0.0000000000000000     
   7.9163609999999995E-002  0.60979116000000000        0.0000000000000000     
  0.92010649000000000       0.61081183999999999        0.0000000000000000     
  0.61954008999999999        7.1530830000000004E-002   0.0000000000000000     
  0.91882012999999996       0.38917363999999999        0.0000000000000000     
  0.39086346000000000        8.0652249999999995E-002   0.0000000000000000     
   7.9183480000000001E-002  0.38966213000000000        0.0000000000000000     
  0.59114111999999996       0.49294315000000000        0.0000000000000000     
  0.63337980999999999       0.64485914000000000        0.0000000000000000     
  0.50012352000000004       0.29676539000000002        0.0000000000000000     
  0.82552601000000003       0.92753492000000004        0.0000000000000000     
  0.92774772999999999       0.82498556999999995        0.0000000000000000     
   7.1970870000000006E-002  0.17510291000000000        0.0000000000000000     
  0.17422821999999999        7.2635640000000001E-002   0.0000000000000000     
  0.82510813000000005        7.2134840000000006E-002   0.0000000000000000     
  0.92754665000000003       0.17446275999999999        0.0000000000000000     
  0.17501022999999999       0.92789951999999998        0.0000000000000000     
   7.2464680000000004E-002  0.82554053000000005        0.0000000000000000     
  0.30731587999999999       0.50885354999999999        0.0000000000000000     
  0.59033407999999998       0.22171178999999999        0.0000000000000000     
  0.40109191999999999       0.78725542000000004        0.0000000000000000     
  0.35420917000000002       0.63754104000000000        0.0000000000000000     
  0.15983976999999999       0.56665573000000002        0.0000000000000000     
  0.84108459999999996       0.56757886999999996        0.0000000000000000     
  0.83902096000000004       0.43344338999999998        0.0000000000000000     
  0.43230028999999998       0.16004268999999999        0.0000000000000000     
  0.57536027999999995       0.83041363999999995        0.0000000000000000     
  0.15771898000000001       0.42747892999999998        0.0000000000000000     
  0.34021692999999997       0.34221559000000001        0.0000000000000000     
  0.56002271999999997       0.57501117999999996        0.0000000000000000     
  0.65344329000000001       0.78147597999999996        0.0000000000000000     
   0.0000000000000000        0.0000000000000000        0.0000000000000000     
   1.0000000000000000        0.0000000000000000        0.0000000000000000     
   1.0000000000000000        1.0000000000000000        0.0000000000000000     
   0.0000000000000000        1.0000000000000000        0.0000000000000000     
  0.11111111000000000        0.0000000000000000        0.0000000000000000     
  0.22222222000000000        0.0000000000000000        0.0000000000000000     
  0.33333332999999998        0.0000000000000000        0.0000000000000000     
  0.44444444000000000        0.0000000000000000        0.0000000000000000     
  0.55555555999999995        0.0000000000000000        0.0000000000000000     
  0.66666667000000002        0.0000000000000000        0.0000000000000000     
  0.77777777999999997        0.0000000000000000        0.0000000000000000     
  0.88888889000000004        0.0000000000000000        0.0000000000000000     
   1.0000000000000000       0.11111111000000000        0.0000000000000000     
   1.0000000000000000       0.22222222000000000        0.0000000000000000     
   1.0000000000000000       0.33333332999999998        0.0000000000000000     
   1.0000000000000000       0.44444444000000000        0.0000000000000000     
   1.0000000000000000       0.55555555999999995        0.0000000000000000     
   1.0000000000000000       0.66666667000000002        0.0000000000000000     
   1.0000000000000000       0.77777777999999997        0.0000000000000000     
   1.0000000000000000       0.88888889000000004        0.0000000000000000     
  0.88888889000000004        1.0000000000000000        0.0000000000000000     
  0.77777777999999997        1.0000000000000000        0.0000000000000000     
  0.66666667000000002        1.0000000000000000        0.0000000000000000     
  0.55555555999999995        1.0000000000000000        0.0000000000000000     
  0.44444444000000000        1.0000000000000000        0.0000000000000000     
  0.33333332999999998        1.0000000000000000        0.0000000000000000     
  0.22222222000000000        1.0000000000000000        0.0000000000000000     
  0.11111111000000000        1.0000000000000000        0.0000000000000000     
   0.0000000000000000       0.11111111000000000        0.0000000000000000     
   0.0000000000000000       0.22222222000000000        0.0000000000000000     
[...]
 CELL_DATA         354
 SCALARS U float
 LOOKUP_TABLE default
    0.21163128984193084470E-01
    0.74606582894806539041E-01
    0.83737537642781273428E-01
    0.24666573076943637544E+00
    0.25989052253775377782E-01
    0.48416253950096091452E-01
    0.14936028571283685440E+00
    0.47947781327815679198E-01
    0.26292461252809889993E+00
    0.35156659484030283735E+00
    0.52302247147085167978E+00
    0.49389605584093687618E+00
    0.59121419803568897589E+00
    0.62588632776318453566E+00
    0.59156103847544783125E+00
    0.59686671109374367372E+00
    0.42934970368238173366E+00
    0.29236811939176632347E+00
    0.10804394353487052627E+00
    0.18791466580219001736E+00
    0.74527292992431798391E-01
    0.70670614793864522385E-01
    0.16579538898504739275E+00
    0.99718412539571713027E-01
    0.16681872887288984320E+00
    0.14390940016857789452E+00
    0.11054145692693280456E+00
    0.12974298991109101120E+00
    0.94610400946191039462E-01
    0.41918705825213654903E-01
    0.26758205050491038618E-01
    0.41284575332495444810E-01
    0.29756048232881058407E-01
    0.21569433764179003765E-01
    0.36912063502175525287E-01
    0.33092847195954393225E-01
    0.59470761000485247716E-01
    0.35578127728499213400E-01
    0.18131620298183125095E-01
    0.18663867394557547008E-01
    0.13729266960101533385E-01
    0.13786614763206007928E-01
    0.14150161914862543003E-01
    0.13605316228296695027E-01
    0.15667347284208810870E-01
    0.92359272966620487716E-02
    0.18635863531974296986E-01
    0.12939456562066407527E-01
    0.45515891018802594192E-01
    0.96994182091261302303E-01
    0.19262927878727031938E+00
    0.12394873586230698015E+00
    0.19442069455492108632E-01
    0.73179786099032825483E-02
    0.19274904319498790961E-01
    0.70028748765420681735E-02
    0.19169591850017871776E-01
    0.15778360637421388196E-01
    0.21694799317385236870E-01
    0.15844940627084191931E-01
    0.21970339699800944810E-01
    0.15825717852029411864E-01
    0.16024824362920492282E-01
    0.16928148543080223654E-01
    0.32551959412352574064E-01
    0.43076569272365382302E-01
    0.76838372887592945593E-01
    0.71171523499681005331E-01
    0.72645531227068826929E+00
    0.85100674199429982014E+00
    0.86233144563591324072E+00
    0.81286502068560828604E+00
    0.86442377747069820693E+00
    0.81059926884664079694E+00
    0.83175763730119700590E+00
    0.82642233058306835414E+00
    0.82724461767111889809E+00
    0.84738851603762244125E+00
    0.58274982229088312380E+00
    0.72385200548758477090E+00
    0.20140850070481675083E+00
    0.41839922908965371251E+00
    0.78805699099232018323E+00
    0.30012452072536466297E+00
    0.68552045878261358425E+00
    0.18691058751788103276E+00
    0.66957752941142784087E-01
    0.48374488730044429285E+00
    0.59013343836862597325E+00
    0.33167412768470783124E+00
    0.11386798595414973634E+00
    0.34990095875441779016E+00
    0.43046649712280993239E+00
    0.14287328541435909135E+00
    0.99652937445597833399E-01
    0.10454824632062287293E+00
    0.59480490266771190999E+00
    0.75244175061250628822E+00
    0.83570941437852708233E+00
    0.84064957866719602908E+00
    0.85101581529298142570E+00
    0.80835794736875032918E+00
    0.83992820861493178164E+00
    0.49639308299969064908E+00
    0.46284507266786861779E+00
    0.17889164981587121761E+00
    0.20410739684566403529E+00
    0.65101037962820162974E+00
    0.63359998957479624071E+00
    0.47701347566353602403E+00
    0.99891189548822839628E-01
    0.34725194836392658804E+00
    0.15066740541071238502E+00
    0.13674474451734125457E+00
    0.80866837973550254048E+00
    0.21096868475201766002E+00
    0.54313053566884750278E+00
    0.75655005931055496760E+00
    0.79295888479967346907E+00
    0.24215332847083892442E+00
    0.47430331646405177182E+00
    0.34543286668030304121E-01
    0.48874931290834054687E-01
    0.44065988473667029590E-01
    0.75231264528454411256E-01
    0.97935289864181832020E-01
    0.36114445282407141302E-01
    0.40561604592939920488E-01
    0.10881537812528757625E+00
    0.46783882269307541790E+00
    0.92285032532591987353E-01
    0.65715721256133041717E+00
    0.43350252227521551829E+00
    0.80125259342973750853E-01
    0.15502106320786696037E+00
    0.76137792468959697434E+00
    0.84279809452140153070E+00
    0.49928810848338134321E+00
    0.85110704410393311914E+00
    0.81541060658784314530E+00
    0.76360805844922208241E+00
    0.49654398962580870158E+00
    0.26548633729855261598E-01
    0.23619991557536457877E-01
    0.25219824664960595328E-01
    0.42743704515529862276E-01
    0.29372982292677176502E-01
    0.23057444000722061156E-01
    0.23619838882536176722E-01
    0.81299257746298270177E+00
    0.70590139565134302213E+00
    0.38450771357419100127E+00
    0.70949330210230265870E+00
    0.32835709081978498025E+00
    0.81288100843133848095E+00
    0.85005104541163545306E+00
    0.85774720499300238785E+00
    0.84145085733842406306E+00
    0.87236501221140239082E+00
    0.85275814075447320395E+00
    0.77870540083500328077E+00
    0.80926003394577006311E+00
    0.84391275908105134462E+00
    0.81827456231225337291E+00
    0.84194513447686913921E+00
    0.48964132464142169632E-01
    0.89470035867204894542E-01
    0.48552160413697503794E-01
    0.80571082806098981433E-01
    0.92203824712611820447E-01
    0.81778269562333583131E+00
    0.83332489389131403357E+00
    0.86056370890194888723E+00
    0.84317461817179784056E+00
    0.85573360332521897220E+00
    0.15114625330978823103E+00
    0.50582396318332201179E+00
    0.50907008647253781941E+00
    0.10725802445415723307E+00
    0.21784121531923095194E+00
    0.81308314044166674073E+00
    0.76323797685626360021E+00
    0.85086659815842458077E+00
    0.73793398744892524377E+00
    0.85378889866862572866E+00
    0.15332844321728852921E+00
    0.61359867698331227448E+00
    0.28574102947051965851E+00
    0.23432825423741232562E+00
    0.57129941772999681682E+00
    0.77813316767131146534E+00
    0.82093828850583439039E+00
    0.62145193510360352551E+00
    0.86760532039532534121E+00
    0.46127473156625914408E+00
    0.51889962283514702579E-01
    0.15916483716853005448E+00
    0.68163514670330868639E-01
    0.53191990809032758947E-01
    0.79719594058391032854E-01
    0.22551006721722194337E-01
    0.22674140796151372873E-01
    0.27993892013230551458E-01
    0.16761393829205103317E-01
    0.29995919268542815816E-01
    0.89760563216864860947E-01
    0.50722266850907038460E+00
    0.21716846312154505783E+00
    0.67778717295330492831E+00
    0.51041755052132520287E+00
    0.76979928153427690241E+00
    0.67430453186888161810E+00
    0.84852618218424069596E+00
    0.85898674796123630770E+00
    0.85901960269473720544E+00
    0.84170754187207896813E+00
    0.82468784641091918974E+00
    0.84991883955917668647E+00
    0.82048065968562511330E+00
    0.92658797641503018450E-01
    0.30237868254240535953E-01
    0.47197133651605292781E-01
    0.78706774563252113186E+00
    0.20082474690334500833E+00
    0.67662540128861015098E+00
    0.20130131700407036949E-01
    0.25897218365991295924E-01
    0.33911207865691704588E-01
    0.57820575886473012106E-01
    0.37165294301544103683E-01
    0.37308972132588540116E-01
    0.63504338053614328707E-01
    0.14342120073072986419E+00
    0.27186929350505806280E+00
    0.40243281015402387890E+00
    0.61255648512543869888E+00
    0.70173697612228869147E+00
    0.85418995211921255883E+00
    0.79266601884232523734E+00
    0.39947790477170697088E+00
    0.76650697145360946472E+00
    0.78052351247021989344E+00
    0.15819079385118442471E+00
    0.29388377037089480348E+00
    0.81019014383385679068E+00
    0.83935394222665982156E+00
    0.66490722090301782043E-01
    0.25310447544231982203E-01
    0.26392078958095546715E-01
    0.24301150065598470240E+00
    0.34850190159566439563E-01
    0.25949938119903783601E-01
    0.78742557625005793476E+00
    0.66611714970572233341E+00
    0.22428115043984242494E+00
    0.80823277347513233781E+00
    0.47897331689612038241E+00
    0.43228011403488586506E+00
    0.10588038490606981046E+00
    0.69038067217168513912E-01
    0.44444404180541303984E-01
    0.79947110805581711457E+00
    0.85749755621162293551E+00
    0.68042272480464571771E+00
    0.46271970355835426170E-01
    0.30550108760271310615E-01
    0.28958070115192358074E-01
    0.30447108346671764717E-01
    0.19717816128793943381E-01
    0.23942346708003957312E-01
    0.81251928200342959929E+00
    0.32615183958313986867E+00
    0.74264647207757650271E+00
    0.82954625019790650953E+00
    0.53690112998549865964E+00
    0.83817156516985880099E+00
    0.85704124566649420025E+00
    0.79278241678699401529E+00
    0.18325722868990673708E+00
    0.76815829831513082748E+00
    0.74060938736092440937E+00
    0.21902471549371685389E+00
    0.62447277805589396227E+00
    0.51401218141280791141E+00
    0.12295289870880346528E+00
    0.84345726855623115448E+00
    0.81694737733890865350E+00
    0.25799614373028047914E-01
    0.60373978063889978396E-01
    0.39258987436873546417E-01
    0.40253683769616216415E-01
    0.44065596511657845191E+00
    0.18556593180722871783E+00
    0.24558272994492019031E-01
    0.25177956747927623948E-01
    0.77136354333989565202E+00
    0.16361883992545742106E+00
    0.11396495052007202253E+00
    0.68891073415266368407E+00
    0.49361263573583481767E-01
    0.77514429597522005455E+00
    0.26120268006843838648E+00
    0.38796523200123819719E-01
    0.81018494046654421226E+00
    0.83373578020090799434E+00
    0.86356653415741746471E+00
    0.49589960727114024142E+00
    0.82042960673237108615E+00
    0.57307964809734573963E-01
    0.58182361247100765345E-01
    0.39779505948516291625E+00
    0.71975896181411225250E+00
    0.83337708421604417275E+00
    0.93992993616755740605E-01
    0.83672854742711666454E+00
    0.87265253804250519920E+00
    0.77016894643746836024E-01
    0.10365231717670903011E+00
    0.13837807916325755436E-01
    0.40254426429530126147E-02
    0.17396496396218832925E-01
    0.42777753003226722667E-02
    0.88076090483669003395E-01
    0.10972666143461398680E+00
    0.35220979893104370495E+00
    0.22898600671951474528E+00
    0.20242135086527963256E-01
    0.28893741545573770751E-01
    0.15040151973322393730E+00
    0.30697369419073927688E+00
    0.32696636605020840127E+00
    0.23908401550430735671E+00
    0.66143992556663616655E-01
    0.47273692125962751484E-02
    0.47100996949512490344E-02
    0.30392847772060657338E-02
    0.19626390999833726730E-02
    0.16204592619716506278E-02
    0.56254136017236285039E-02
    0.25172101119449185463E-01
    0.33918716574364703165E-01
    0.91427873675344120685E-02
    0.30580441895371600521E-02
    0.49661685884317633560E-02
    0.12220855915137765133E-01
    0.56864556415328650074E-01
    0.18978451441555455048E+00
    0.97287840911663959163E-03
    0.34355195011362833464E-03
    0.28560550077315230259E-03
    0.79654967093205266554E-03
    0.23399105191260873363E-02
    0.24455134660296435484E-01
    0.10367697680858246889E+00
