# vtk DataFile Version 3.0
LAPLACIEN  2D
ASCII
DATASET UNSTRUCTURED_GRID
 POINTS         391  float
  0.50371505999999999       0.50367786999999997        0.0000000000000000     
  0.29013556000000001       0.29014535000000002        0.0000000000000000     
  0.70165584999999997       0.71206597999999999        0.0000000000000000     
  0.70304188999999995       0.30176619999999998        0.0000000000000000     
  0.30920671999999999       0.71149227999999998        0.0000000000000000     
  0.79044983999999996       0.49884783999999999        0.0000000000000000     
  0.49102621000000002       0.20968644000000000        0.0000000000000000     
  0.49912957000000002       0.77208717000000004        0.0000000000000000     
  0.21724072999999999       0.48989389000000000        0.0000000000000000     
  0.83255933999999998       0.83046598000000005        0.0000000000000000     
  0.16646774000000000       0.17015694000000001        0.0000000000000000     
  0.83054514999999995       0.16736480000000001        0.0000000000000000     
  0.16953130999999999       0.83265739000000005        0.0000000000000000     
  0.42166445000000002       0.36345201999999999        0.0000000000000000     
  0.64462200999999997       0.56347807999999999        0.0000000000000000     
  0.35324633999999999       0.56311191000000005        0.0000000000000000     
  0.65456411000000003       0.84856860999999995        0.0000000000000000     
  0.35141477999999998       0.15563974000000000        0.0000000000000000     
  0.15290967000000000       0.35206625000000003        0.0000000000000000     
  0.82942241000000005       0.34936866000000000        0.0000000000000000     
  0.84390527000000004       0.64441694999999999        0.0000000000000000     
  0.63699174999999997       0.14284276000000001        0.0000000000000000     
  0.15620682999999999       0.64648446999999998        0.0000000000000000     
  0.36426062999999997       0.85756310999999996        0.0000000000000000     
  0.63489340999999999       0.40519052000000000        0.0000000000000000     
  0.52518872999999999       0.65957078000000002        0.0000000000000000     
  0.32158959999999998       0.42298103999999997        0.0000000000000000     
  0.58861710000000000       0.31711036999999997        0.0000000000000000     
  0.42078418000000001       0.69497151999999995        0.0000000000000000     
  0.48608786999999998       0.89334152000000000        0.0000000000000000     
   9.7084320000000002E-002  0.50000000000000000        0.0000000000000000     
  0.90291568000000000       0.50000000000000000        0.0000000000000000     
  0.51392453000000005       0.10668648999999999        0.0000000000000000     
  0.59792566999999996       0.73122754000000001        0.0000000000000000     
  0.74510058999999995       0.41124730999999998        0.0000000000000000     
  0.73212551999999997       0.90191560000000004        0.0000000000000000     
   9.7784830000000003E-002  0.26957329000000002        0.0000000000000000     
  0.26711221000000002        9.8671499999999995E-002   0.0000000000000000     
  0.90191560000000004       0.26787448000000003        0.0000000000000000     
  0.90118569000000004       0.73039821000000005        0.0000000000000000     
  0.73122947000000005        9.8017859999999998E-002   0.0000000000000000     
   9.8084400000000002E-002  0.73212551999999997        0.0000000000000000     
  0.26957329000000002       0.90221516999999996        0.0000000000000000     
  0.39283522999999998       0.25360379000000000        0.0000000000000000     
  0.74480864000000002       0.60495284999999999        0.0000000000000000     
  0.25505132000000003       0.60593640999999998        0.0000000000000000     
  0.52159297999999998       0.40671636000000000        0.0000000000000000     
  0.40768852000000000       0.47699891000000000        0.0000000000000000     
   9.1467049999999994E-002   9.1876959999999994E-002   0.0000000000000000     
  0.90842484999999995       0.90819225000000003        0.0000000000000000     
  0.90820104999999995        9.1566729999999999E-002   0.0000000000000000     
   9.1807449999999999E-002  0.90843574000000005        0.0000000000000000     
  0.27098960000000000       0.20527094000000001        0.0000000000000000     
  0.73457293999999995       0.79835387000000002        0.0000000000000000     
  0.79817773000000003       0.25713470999999999        0.0000000000000000     
  0.20747797000000001       0.72863946000000002        0.0000000000000000     
  0.20175195000000001       0.27583914999999998        0.0000000000000000     
  0.79603889000000005       0.72159035000000005        0.0000000000000000     
  0.71761666000000002       0.19748431999999999        0.0000000000000000     
  0.28462607000000001       0.80251899999999998        0.0000000000000000     
  0.69134598999999997       0.49261972999999998        0.0000000000000000     
  0.44720578999999999       0.58582935999999997        0.0000000000000000     
  0.24242269999999999       0.37228174000000003        0.0000000000000000     
  0.38265623999999998       0.93072131999999996        0.0000000000000000     
  0.60971754000000000       0.91988369000000003        0.0000000000000000     
   7.9163609999999995E-002  0.60979116000000000        0.0000000000000000     
  0.92010649000000000       0.61081183999999999        0.0000000000000000     
  0.61954008999999999        7.1530830000000004E-002   0.0000000000000000     
  0.91882012999999996       0.38917363999999999        0.0000000000000000     
  0.39086346000000000        8.0652249999999995E-002   0.0000000000000000     
   7.9183480000000001E-002  0.38966213000000000        0.0000000000000000     
  0.59114111999999996       0.49294315000000000        0.0000000000000000     
  0.63337980999999999       0.64485914000000000        0.0000000000000000     
  0.50012352000000004       0.29676539000000002        0.0000000000000000     
  0.82552601000000003       0.92753492000000004        0.0000000000000000     
  0.92774772999999999       0.82498556999999995        0.0000000000000000     
   7.1970870000000006E-002  0.17510291000000000        0.0000000000000000     
  0.17422821999999999        7.2635640000000001E-002   0.0000000000000000     
  0.82510813000000005        7.2134840000000006E-002   0.0000000000000000     
  0.92754665000000003       0.17446275999999999        0.0000000000000000     
  0.17501022999999999       0.92789951999999998        0.0000000000000000     
   7.2464680000000004E-002  0.82554053000000005        0.0000000000000000     
  0.30731587999999999       0.50885354999999999        0.0000000000000000     
  0.59033407999999998       0.22171178999999999        0.0000000000000000     
  0.40109191999999999       0.78725542000000004        0.0000000000000000     
  0.35420917000000002       0.63754104000000000        0.0000000000000000     
  0.15983976999999999       0.56665573000000002        0.0000000000000000     
  0.84108459999999996       0.56757886999999996        0.0000000000000000     
  0.83902096000000004       0.43344338999999998        0.0000000000000000     
  0.43230028999999998       0.16004268999999999        0.0000000000000000     
  0.57536027999999995       0.83041363999999995        0.0000000000000000     
  0.15771898000000001       0.42747892999999998        0.0000000000000000     
  0.34021692999999997       0.34221559000000001        0.0000000000000000     
  0.56002271999999997       0.57501117999999996        0.0000000000000000     
  0.65344329000000001       0.78147597999999996        0.0000000000000000     
   0.0000000000000000        0.0000000000000000        0.0000000000000000     
   1.0000000000000000        0.0000000000000000        0.0000000000000000     
   1.0000000000000000        1.0000000000000000        0.0000000000000000     
   0.0000000000000000        1.0000000000000000        0.0000000000000000     
  0.11111111000000000        0.0000000000000000        0.0000000000000000     
  0.22222222000000000        0.0000000000000000        0.0000000000000000     
  0.33333332999999998        0.0000000000000000        0.0000000000000000     
  0.44444444000000000        0.0000000000000000        0.0000000000000000     
  0.55555555999999995        0.0000000000000000        0.0000000000000000     
  0.66666667000000002        0.0000000000000000        0.0000000000000000     
  0.77777777999999997        0.0000000000000000        0.0000000000000000     
  0.88888889000000004        0.0000000000000000        0.0000000000000000     
   1.0000000000000000       0.11111111000000000        0.0000000000000000     
   1.0000000000000000       0.22222222000000000        0.0000000000000000     
   1.0000000000000000       0.33333332999999998        0.0000000000000000     
   1.0000000000000000       0.44444444000000000        0.0000000000000000     
   1.0000000000000000       0.55555555999999995        0.0000000000000000     
   1.0000000000000000       0.66666667000000002        0.0000000000000000     
   1.0000000000000000       0.77777777999999997        0.0000000000000000     
   1.0000000000000000       0.88888889000000004        0.0000000000000000     
  0.88888889000000004        1.0000000000000000        0.0000000000000000     
  0.77777777999999997        1.0000000000000000        0.0000000000000000     
  0.66666667000000002        1.0000000000000000        0.0000000000000000     
  0.55555555999999995        1.0000000000000000        0.0000000000000000     
  0.44444444000000000        1.0000000000000000        0.0000000000000000     
  0.33333332999999998        1.0000000000000000        0.0000000000000000     
  0.22222222000000000        1.0000000000000000        0.0000000000000000     
  0.11111111000000000        1.0000000000000000        0.0000000000000000     
   0.0000000000000000       0.11111111000000000        0.0000000000000000     
   0.0000000000000000       0.22222222000000000        0.0000000000000000     
[...]
 CELL_DATA         354
 SCALARS U float
 LOOKUP_TABLE default
    0.16684164707220909844E-04
    0.98039308950224855754E-02
    0.78454374926842411963E-04
    0.28045832954617651127E-03
    0.21256363723278056467E-04
    0.75592211140022684285E-03
    0.58512345920019512291E-02
    0.16450018920186840633E-02
    0.67362866032455049475E-02
    0.45394938539391714583E-02
    0.38674944881755455271E-02
    0.41238852451437957650E-02
    0.51514447140012754531E-02
    0.51645487804181820432E-02
    0.52014165037365233529E-02
    0.46949531118344947633E-02
    0.38864322116365494254E-02
    0.25599214812855493328E-02
    0.66536270599213522339E-02
    0.31340050515825178083E-02
    0.94813673296716121514E-02
    0.67741732882785204994E-02
    0.53030433610454690355E-02
    0.45782445850677273153E-02
    0.45527575131654833551E-02
    0.32315888376010888303E-02
    0.60984144197271175636E-02
    0.37506652524030613741E-02
    0.71672523532627088402E-02
    0.35018402187718712659E-02
    0.23184713562277479510E-04
    0.33858787284610869321E-04
    0.26010319159504665152E-04
    0.20876678548047822694E-04
    0.37912588876783740171E-04
    0.32448889977303961845E-04
    0.47985931111718023727E-04
    0.32152135528603191798E-04
    0.15880735043128740126E-04
    0.16733826058450525031E-04
    0.12190962063620654885E-04
    0.11443562479839468050E-04
    0.12155504529080307763E-04
    0.11291964034877585666E-04
    0.13402593870607687070E-04
    0.79891062528961800270E-05
    0.16981342848914144158E-04
    0.10882784087846442348E-04
    0.43372861851948956444E-04
    0.98191584687756336305E-04
    0.20522567819357360737E-03
    0.13062521248374299324E-03
    0.15193070008472125054E-04
    0.58391943788442467089E-05
    0.16991047177734467315E-04
    0.55492101707044760308E-05
    0.16941175819653774074E-04
    0.12741284375859210799E-04
    0.16525353632469338137E-04
    0.12755636851265368071E-04
    0.16771912146374076962E-04
    0.13017361471930329083E-04
    0.15145685372980475768E-04
    0.14137058074379820467E-04
    0.30216799433086610028E-04
    0.36301291921088481762E-04
    0.87598149365596684047E-04
    0.68582999251389154460E-04
    0.37495997878061793941E-02
    0.58088590057977082179E-02
    0.44245244932977394539E-02
    0.52840656667616763692E-02
    0.52115742014963144929E-02
    0.49895192115414670544E-02
    0.40867801780435607240E-02
    0.32918749781964732302E-02
    0.40979264037056730569E-02
    0.63758046839203705303E-02
    0.53141701129793177463E-02
    0.45209960726150764942E-02
    0.29178343878271005216E-02
    0.35117942752350564742E-02
    0.75717174962074626499E-02
    0.16179124078050733434E-02
    0.36169209975526928243E-02
    0.74971418799989770348E-02
    0.30893198445258486518E-02
    0.75996369577239651291E-02
    0.43760878154599416184E-02
    0.94028672361951490255E-02
    0.69586785246475912556E-02
    0.32503851610766109834E-02
    0.31315883864439057749E-02
    0.86533141428423246150E-04
    0.70936593412622059827E-04
    0.99284373856712467552E-04
    0.62388539220808092098E-02
    0.35053088505528177954E-02
    0.47778460007757185546E-02
    0.40973314658849383299E-02
    0.54328179768207193051E-02
    0.37363789320616087181E-02
    0.49416825890338921673E-02
    0.73499795867103734012E-02
    0.56325189049341792269E-02
    0.11555010412129846850E-01
    0.13114502275143262444E-01
    0.58704241551878564437E-02
    0.48394456820354311150E-02
    0.48875142869685798963E-02
    0.67247874977382189414E-04
    0.32145606914228382414E-02
    0.25301883881395791261E-02
    0.17022820113505921814E-02
    0.40547133711502873071E-02
    0.42591593810875297971E-02
    0.56415144804506959716E-02
    0.27294384190598474163E-02
    0.57721075281309671898E-02
    0.29653928374241060421E-02
    0.39149466374180791339E-02
    0.31812339447030474511E-04
    0.44723413166912465351E-04
    0.42797522538038802590E-04
    0.62123294756971259999E-04
    0.73805738550198715544E-04
    0.33836676418648482247E-04
    0.38967062254110938953E-04
    0.38064035742747560909E-02
    0.44146475293806736878E-02
    0.27422744235067767968E-02
    0.52229156396052618325E-02
    0.57064469749590063241E-02
    0.66671356921028539005E-04
    0.42991017604050944106E-02
    0.41132313668397193704E-02
    0.59713049537395241836E-02
    0.37759007567361741603E-02
    0.51472092381603549646E-02
    0.46858924456541000900E-02
    0.45697179056774853145E-02
    0.38731535515796485479E-02
    0.25423535962197963024E-04
    0.23155048515506144677E-04
    0.24740933897031722422E-04
    0.38477998025774522509E-04
    0.27682281264101439680E-04
    0.22441054063948004437E-04
    0.23002277776889486915E-04
    0.44048088807988935306E-02
    0.60626820470073916960E-02
    0.80542610697250036078E-02
    0.52070012873334054967E-02
    0.87352018839282966067E-02
    0.61848056181230326098E-02
    0.41122898782094720327E-02
    0.54100192736447815997E-02
    0.47749263889951126805E-02
    0.40644516580643349699E-02
    0.56507846013203969632E-02
    0.41544014580607762158E-02
    0.44359518835640956297E-02
    0.34347707222854013780E-02
    0.25765165597489304156E-02
    0.41625978174501601647E-02
    0.38574701224548696454E-04
    0.67935863470859692904E-04
    0.37344698489072971042E-04
    0.60968945151400195091E-04
    0.79242288896202422847E-04
    0.51462508582020335263E-02
    0.54776951041859024000E-02
    0.46008702828412417069E-02
    0.69007076779623380269E-02
    0.60864997307792136072E-02
    0.37986477651157229962E-02
    0.37250343940785210148E-02
    0.26964423698877379096E-02
    0.39087476213324409691E-02
    0.23420698909567289753E-02
    0.51925803104497349552E-02
    0.46416603856025443961E-02
    0.56131101610431884813E-02
    0.38839110714347264974E-02
    0.48353230320586975885E-02
    0.17200505942309542509E-02
    0.53602294042052692907E-02
    0.22327027194368092092E-02
    0.14478126689369506808E-02
    0.43806576525165109165E-02
    0.73030369220853964818E-02
    0.55814713244916568102E-02
    0.86346357116805945442E-02
    0.59236771705133547603E-02
    0.80203200575560545937E-02
    0.44296987752391391935E-04
    0.13441434421960563646E-03
    0.57432946875515584909E-04
    0.43754482412289587268E-04
    0.68797594487693243212E-04
    0.19965183142483593047E-04
    0.21534186756532307938E-04
    0.25651421382866888680E-04
    0.15064133321779828048E-04
    0.27042621830919427858E-04
    0.46614700968932130942E-02
    0.76130315619799427546E-02
    0.77144784596881194744E-02
    0.38423443185862100717E-02
    0.79995692589553551999E-02
    0.43833598592261631757E-02
    0.42313689842110972783E-02
    0.40234707234116833321E-02
    0.40027332679427795811E-02
    0.42430227301832029035E-02
    0.58113480048234958039E-02
    0.44096828466510433822E-02
    0.44285868507832450505E-02
    0.63787624308092516143E-02
    0.34731460782855129270E-02
    0.21807626974313628135E-02
    0.16838250397297090111E-02
    0.36034182935355606008E-02
    0.26063601699965739493E-02
    0.39684429865607046342E-02
    0.17419833346130746425E-04
    0.21868170816050216477E-04
    0.30003207755357158657E-04
    0.45452277629319339284E-04
    0.29302048230830643526E-04
    0.29815682910177502413E-04
    0.13867719068748017835E-02
    0.28643646566376412821E-02
    0.78209856390019372174E-02
    0.39186312137259567481E-02
    0.51863294321160295294E-02
    0.29471635190983910477E-02
    0.69894330394566529796E-02
    0.52007378626470956648E-02
    0.76535098377771768052E-02
    0.65975096185181833844E-02
    0.71947485106277084613E-02
    0.18694787835583793600E-02
    0.10619420777808852123E-02
    0.51788510192594013060E-02
    0.41111601368216286675E-02
    0.52597415521979540710E-04
    0.21766762192156758460E-04
    0.24055665589165358971E-04
    0.59296747010618693768E-02
    0.18073163728357585778E-02
    0.26078847864546712403E-04
    0.45166622109610726765E-02
    0.58445268072460174885E-02
    0.31239917488454253466E-02
    0.41234370748672042120E-02
    0.44650767419717324325E-02
    0.47838595540597578237E-02
    0.99319422246517711714E-03
    0.73943997770329044500E-03
    0.40192924606319937770E-04
    0.58490939358388817360E-02
    0.61034690567645238923E-02
    0.46326035328642951178E-02
    0.41452454742623347109E-04
    0.27078845835338846395E-04
    0.28053316224644872409E-04
    0.28735244256348527159E-04
    0.18455387959001284516E-04
    0.23601513226778231437E-04
    0.34706028899574290804E-02
    0.52484372714968908352E-02
    0.65741315364074744132E-02
    0.67905955753169442227E-02
    0.36451200951513407569E-02
    0.38566892346649970201E-02
    0.44897166966104511132E-02
    0.49454078227574990376E-02
    0.13172048551805684916E-03
    0.53023255609433968608E-02
    0.58942514326653597939E-02
    0.16221785448813773756E-02
    0.41349355861333260756E-02
    0.84540814298417858719E-02
    0.71103729521910970235E-02
    0.52873146920110331015E-02
    0.42941601397246701929E-02
    0.20437600157466998311E-04
    0.27214998508656887237E-02
    0.37479171590774783458E-04
    0.40396814731951951759E-04
    0.31635681661819504279E-02
    0.61305142187560160080E-02
    0.24140621831060702452E-04
    0.25042080298185267936E-04
    0.33154743175275542752E-02
    0.21919825327144704975E-02
    0.77349474634288344164E-03
    0.57561261984438848865E-02
    0.44017569785934358814E-04
    0.30231766340707570857E-02
    0.12616437929833659165E-01
    0.35150104895799864674E-04
    0.52415811587704780328E-02
    0.29297376269811431851E-02
    0.49820289344318056945E-02
    0.21652748166426359112E-02
    0.46621285409804607072E-02
    0.44569634861597144117E-04
    0.46798354313271879428E-04
    0.51628177232925691678E-02
    0.31406811155760875308E-02
    0.53897401651502264627E-02
    0.21127174693589424043E-02
    0.49538624518518014836E-02
    0.42558318699099165205E-02
    0.10772152926699462075E-01
    0.20529407393444175627E-03
    0.12498453742805502897E-04
    0.35767996737088735934E-05
    0.51563614056902382782E-02
    0.45912761391818691925E-02
    0.91771490787626589436E-04
    0.10201508402710067144E-03
    0.39256406616088165493E-03
    0.26646912681108818680E-03
    0.73372147492697112683E-03
    0.45508663988231062500E-02
    0.22547999991744728000E-02
    0.47887210462498148653E-02
    0.56705656486085876528E-02
    0.34412120102556413050E-02
    0.11893614139040977352E-02
    0.14063553327160651773E-02
    0.12896047319202171098E-02
    0.60561610807692144599E-03
    0.31615266005893460574E-02
    0.26590396784248315082E-05
    0.53097071611328463137E-05
    0.23690994488477071152E-04
    0.29857659472063514733E-04
    0.77307140321326661372E-05
    0.25942023372101776565E-05
    0.41661447948072066042E-05
    0.99663373499082357805E-05
    0.52521523263302730827E-04
    0.19643388464768597864E-03
    0.90532944292771167927E-06
    0.32424528878039142760E-06
    0.27098086935367726802E-06
    0.73444596058341138414E-06
    0.21693022304748246132E-05
    0.21859616738012224637E-04
    0.10004441815210314603E-03
