# vtk DataFile Version 3.0
LAPLACIEN  2D
ASCII
DATASET UNSTRUCTURED_GRID
 POINTS         391  float
  0.50371505999999999       0.50367786999999997        0.0000000000000000     
  0.29013556000000001       0.29014535000000002        0.0000000000000000     
  0.70165584999999997       0.71206597999999999        0.0000000000000000     
  0.70304188999999995       0.30176619999999998        0.0000000000000000     
  0.30920671999999999       0.71149227999999998        0.0000000000000000     
  0.79044983999999996       0.49884783999999999        0.0000000000000000     
  0.49102621000000002       0.20968644000000000        0.0000000000000000     
  0.49912957000000002       0.77208717000000004        0.0000000000000000     
  0.21724072999999999       0.48989389000000000        0.0000000000000000     
  0.83255933999999998       0.83046598000000005        0.0000000000000000     
  0.16646774000000000       0.17015694000000001        0.0000000000000000     
  0.83054514999999995       0.16736480000000001        0.0000000000000000     
  0.16953130999999999       0.83265739000000005        0.0000000000000000     
  0.42166445000000002       0.36345201999999999        0.0000000000000000     
  0.64462200999999997       0.56347807999999999        0.0000000000000000     
  0.35324633999999999       0.56311191000000005        0.0000000000000000     
  0.65456411000000003       0.84856860999999995        0.0000000000000000     
  0.35141477999999998       0.15563974000000000        0.0000000000000000     
  0.15290967000000000       0.35206625000000003        0.0000000000000000     
  0.82942241000000005       0.34936866000000000        0.0000000000000000     
  0.84390527000000004       0.64441694999999999        0.0000000000000000     
  0.63699174999999997       0.14284276000000001        0.0000000000000000     
  0.15620682999999999       0.64648446999999998        0.0000000000000000     
  0.36426062999999997       0.85756310999999996        0.0000000000000000     
  0.63489340999999999       0.40519052000000000        0.0000000000000000     
  0.52518872999999999       0.65957078000000002        0.0000000000000000     
  0.32158959999999998       0.42298103999999997        0.0000000000000000     
  0.58861710000000000       0.31711036999999997        0.0000000000000000     
  0.42078418000000001       0.69497151999999995        0.0000000000000000     
  0.48608786999999998       0.89334152000000000        0.0000000000000000     
   9.7084320000000002E-002  0.50000000000000000        0.0000000000000000     
  0.90291568000000000       0.50000000000000000        0.0000000000000000     
  0.51392453000000005       0.10668648999999999        0.0000000000000000     
  0.59792566999999996       0.73122754000000001        0.0000000000000000     
  0.74510058999999995       0.41124730999999998        0.0000000000000000     
  0.73212551999999997       0.90191560000000004        0.0000000000000000     
   9.7784830000000003E-002  0.26957329000000002        0.0000000000000000     
  0.26711221000000002        9.8671499999999995E-002   0.0000000000000000     
  0.90191560000000004       0.26787448000000003        0.0000000000000000     
  0.90118569000000004       0.73039821000000005        0.0000000000000000     
  0.73122947000000005        9.8017859999999998E-002   0.0000000000000000     
   9.8084400000000002E-002  0.73212551999999997        0.0000000000000000     
  0.26957329000000002       0.90221516999999996        0.0000000000000000     
  0.39283522999999998       0.25360379000000000        0.0000000000000000     
  0.74480864000000002       0.60495284999999999        0.0000000000000000     
  0.25505132000000003       0.60593640999999998        0.0000000000000000     
  0.52159297999999998       0.40671636000000000        0.0000000000000000     
  0.40768852000000000       0.47699891000000000        0.0000000000000000     
   9.1467049999999994E-002   9.1876959999999994E-002   0.0000000000000000     
  0.90842484999999995       0.90819225000000003        0.0000000000000000     
  0.90820104999999995        9.1566729999999999E-002   0.0000000000000000     
   9.1807449999999999E-002  0.90843574000000005        0.0000000000000000     
  0.27098960000000000       0.20527094000000001        0.0000000000000000     
  0.73457293999999995       0.79835387000000002        0.0000000000000000     
  0.79817773000000003       0.25713470999999999        0.0000000000000000     
  0.20747797000000001       0.72863946000000002        0.0000000000000000     
  0.20175195000000001       0.27583914999999998        0.0000000000000000     
  0.79603889000000005       0.72159035000000005        0.0000000000000000     
  0.71761666000000002       0.19748431999999999        0.0000000000000000     
  0.28462607000000001       0.80251899999999998        0.0000000000000000     
  0.69134598999999997       0.49261972999999998        0.0000000000000000     
  0.44720578999999999       0.58582935999999997        0.0000000000000000     
  0.24242269999999999       0.37228174000000003        0.0000000000000000     
  0.38265623999999998       0.93072131999999996        0.0000000000000000     
  0.60971754000000000       0.91988369000000003        0.0000000000000000     
   7.9163609999999995E-002  0.60979116000000000        0.0000000000000000     
  0.92010649000000000       0.61081183999999999        0.0000000000000000     
  0.61954008999999999        7.1530830000000004E-002   0.0000000000000000     
  0.91882012999999996       0.38917363999999999        0.0000000000000000     
  0.39086346000000000        8.0652249999999995E-002   0.0000000000000000     
   7.9183480000000001E-002  0.38966213000000000        0.0000000000000000     
  0.59114111999999996       0.49294315000000000        0.0000000000000000     
  0.63337980999999999       0.64485914000000000        0.0000000000000000     
  0.50012352000000004       0.29676539000000002        0.0000000000000000     
  0.82552601000000003       0.92753492000000004        0.0000000000000000     
  0.92774772999999999       0.82498556999999995        0.0000000000000000     
   7.1970870000000006E-002  0.17510291000000000        0.0000000000000000     
  0.17422821999999999        7.2635640000000001E-002   0.0000000000000000     
  0.82510813000000005        7.2134840000000006E-002   0.0000000000000000     
  0.92754665000000003       0.17446275999999999        0.0000000000000000     
  0.17501022999999999       0.92789951999999998        0.0000000000000000     
   7.2464680000000004E-002  0.82554053000000005        0.0000000000000000     
  0.30731587999999999       0.50885354999999999        0.0000000000000000     
  0.59033407999999998       0.22171178999999999        0.0000000000000000     
  0.40109191999999999       0.78725542000000004        0.0000000000000000     
  0.35420917000000002       0.63754104000000000        0.0000000000000000     
  0.15983976999999999       0.56665573000000002        0.0000000000000000     
  0.84108459999999996       0.56757886999999996        0.0000000000000000     
  0.83902096000000004       0.43344338999999998        0.0000000000000000     
  0.43230028999999998       0.16004268999999999        0.0000000000000000     
  0.57536027999999995       0.83041363999999995        0.0000000000000000     
  0.15771898000000001       0.42747892999999998        0.0000000000000000     
  0.34021692999999997       0.34221559000000001        0.0000000000000000     
  0.56002271999999997       0.57501117999999996        0.0000000000000000     
  0.65344329000000001       0.78147597999999996        0.0000000000000000     
   0.0000000000000000        0.0000000000000000        0.0000000000000000     
   1.0000000000000000        0.0000000000000000        0.0000000000000000     
   1.0000000000000000        1.0000000000000000        0.0000000000000000     
   0.0000000000000000        1.0000000000000000        0.0000000000000000     
  0.11111111000000000        0.0000000000000000        0.0000000000000000     
  0.22222222000000000        0.0000000000000000        0.0000000000000000     
  0.33333332999999998        0.0000000000000000        0.0000000000000000     
  0.44444444000000000        0.0000000000000000        0.0000000000000000     
  0.55555555999999995        0.0000000000000000        0.0000000000000000     
  0.66666667000000002        0.0000000000000000        0.0000000000000000     
  0.77777777999999997        0.0000000000000000        0.0000000000000000     
  0.88888889000000004        0.0000000000000000        0.0000000000000000     
   1.0000000000000000       0.11111111000000000        0.0000000000000000     
   1.0000000000000000       0.22222222000000000        0.0000000000000000     
   1.0000000000000000       0.33333332999999998        0.0000000000000000     
   1.0000000000000000       0.44444444000000000        0.0000000000000000     
   1.0000000000000000       0.55555555999999995        0.0000000000000000     
   1.0000000000000000       0.66666667000000002        0.0000000000000000     
   1.0000000000000000       0.77777777999999997        0.0000000000000000     
   1.0000000000000000       0.88888889000000004        0.0000000000000000     
  0.88888889000000004        1.0000000000000000        0.0000000000000000     
  0.77777777999999997        1.0000000000000000        0.0000000000000000     
  0.66666667000000002        1.0000000000000000        0.0000000000000000     
  0.55555555999999995        1.0000000000000000        0.0000000000000000     
  0.44444444000000000        1.0000000000000000        0.0000000000000000     
  0.33333332999999998        1.0000000000000000        0.0000000000000000     
  0.22222222000000000        1.0000000000000000        0.0000000000000000     
  0.11111111000000000        1.0000000000000000        0.0000000000000000     
   0.0000000000000000       0.11111111000000000        0.0000000000000000     
   0.0000000000000000       0.22222222000000000        0.0000000000000000     
[...]
 CELL_DATA         354
 SCALARS U float
 LOOKUP_TABLE default
    0.17536316407830983971E-01
    0.68673815177561131629E-01
    0.79168514095015268817E-01
    0.24484731186975960959E+00
    0.21529074799846007610E-01
    0.41783062228575945651E-01
    0.14583989377307463031E+00
    0.41413041764236060982E-01
    0.24836860790246712005E+00
    0.33833040465288533039E+00
    0.51610298271964893946E+00
    0.48927961015980925286E+00
    0.58546266535977120604E+00
    0.62247686223668596828E+00
    0.58987592882573813835E+00
    0.59289607713918324183E+00
    0.42042410508722594109E+00
    0.27878262964389144418E+00
    0.96792719080599665116E-01
    0.17889969613396011772E+00
    0.68587555507717209990E-01
    0.64391571805637537462E-01
    0.16008446961897837557E+00
    0.90628300888943594260E-01
    0.16045502541577516542E+00
    0.13549046181627802388E+00
    0.10229654364966696278E+00
    0.12168824838274613920E+00
    0.89583901864906334556E-01
    0.36521064477089040801E-01
    0.23191396786192253199E-01
    0.36016247262251104011E-01
    0.25570833297778552962E-01
    0.18625730628262802957E-01
    0.32513272030388645772E-01
    0.28977270215369631268E-01
    0.54027085517232446843E-01
    0.31667856116130828348E-01
    0.15104153340039389378E-01
    0.15774245168017200086E-01
    0.11471022962573325724E-01
    0.11231083052149168008E-01
    0.11687316868564959216E-01
    0.11088691851687192472E-01
    0.12892099011249972054E-01
    0.74147004232127580042E-02
    0.15834382444277018964E-01
    0.10587958883420456324E-01
    0.42117584271243138638E-01
    0.92932332534871570084E-01
    0.19026826443648112153E+00
    0.12067479032733226252E+00
    0.16206795187126768476E-01
    0.54933263498521296697E-02
    0.16268542747059404341E-01
    0.52654977409422520571E-02
    0.16201701609637984836E-01
    0.12838653003516371440E-01
    0.18412455435475323651E-01
    0.12881638445004747404E-01
    0.18601865445363463536E-01
    0.13122706394648617212E-01
    0.13793514377537414300E-01
    0.14028231232711189241E-01
    0.28745437409577051513E-01
    0.38312153663774647927E-01
    0.72089681515578013515E-01
    0.67089286933425709702E-01
    0.71246758640729024314E+00
    0.85319430031690191019E+00
    0.86592522837665331092E+00
    0.80762279136211678754E+00
    0.86823239770650784131E+00
    0.81326229050267828669E+00
    0.83783075798883865914E+00
    0.82843814044710506472E+00
    0.83134434913606425344E+00
    0.85151177717968229430E+00
    0.56407667460515420466E+00
    0.72072824308073180077E+00
    0.18784005516316298889E+00
    0.40277506335724311270E+00
    0.79030781539152894499E+00
    0.27497840088792424584E+00
    0.67242355773698248012E+00
    0.16455304070826834439E+00
    0.59079745811352814278E-01
    0.46416148344954688554E+00
    0.57281708475727000085E+00
    0.31147444322478784473E+00
    0.98778945568702647417E-01
    0.32717833802829798806E+00
    0.40566351919046689245E+00
    0.12556615282233077324E+00
    0.91103544067890840363E-01
    0.93996299706924496542E-01
    0.56713647079097406767E+00
    0.75059550359856685997E+00
    0.83917036266932809596E+00
    0.84535986026555443029E+00
    0.85436221248420840535E+00
    0.81174862098510691677E+00
    0.84542923313091355997E+00
    0.47983061395687992556E+00
    0.44277465753593875375E+00
    0.16452913497111337771E+00
    0.18758589805462802524E+00
    0.62867364750614307400E+00
    0.61297002718649140629E+00
    0.45783285162362397092E+00
    0.92222151202018626259E-01
    0.32598085518982011788E+00
    0.13527531059336880825E+00
    0.12327503203792367081E+00
    0.81078587500608512162E+00
    0.19969890308751492292E+00
    0.52472865661065415388E+00
    0.75096549991444894179E+00
    0.78856764930562694982E+00
    0.22761547586549704669E+00
    0.45301277958324126516E+00
    0.29901934300543438899E-01
    0.42643202297809087997E-01
    0.39161580576838786460E-01
    0.67187839915456099016E-01
    0.90290640351537249098E-01
    0.31697730853891700753E-01
    0.35661550039174774729E-01
    0.95847587436972664365E-01
    0.44810785893148163961E+00
    0.83942400673238493081E-01
    0.63796159300178945095E+00
    0.41310216582122682993E+00
    0.73207989937086617727E-01
    0.13818690449871012804E+00
    0.75585738676251934542E+00
    0.84545661067761268548E+00
    0.48167958363030266566E+00
    0.85211866814690784278E+00
    0.81391738529491508558E+00
    0.75702936842079782132E+00
    0.48019806737202908042E+00
    0.22932449770741044487E-01
    0.20405359015744427981E-01
    0.21724470084522062158E-01
    0.37402229675418820209E-01
    0.25168263586881511884E-01
    0.19753265399792042240E-01
    0.20316496105552972473E-01
    0.81319746010654658797E+00
    0.69053756106023245209E+00
    0.36350739167156298493E+00
    0.69764362488044884270E+00
    0.30799395646136007443E+00
    0.81266893153181096743E+00
    0.85476207788616453964E+00
    0.86109169630350468339E+00
    0.84498033124812055306E+00
    0.87740623169170139928E+00
    0.85846758715118309802E+00
    0.78127967028185141274E+00
    0.81675517145365039706E+00
    0.84952719326524350762E+00
    0.82769266983243650060E+00
    0.84735963619832666005E+00
    0.42087273909542463612E-01
    0.79190596419740411083E-01
    0.41459051245344394343E-01
    0.70622662720436255035E-01
    0.82654546397964670512E-01
    0.81681433166807981827E+00
    0.83477925100709027273E+00
    0.86505198608774924729E+00
    0.84403571838451529885E+00
    0.85983952988144407570E+00
    0.13532129059426761808E+00
    0.48600570098308731870E+00
    0.48856037271038649239E+00
    0.97046100033615648184E-01
    0.19520302219625529361E+00
    0.80791234267624500998E+00
    0.75783806159811906156E+00
    0.85245813791390889769E+00
    0.73060687357760889515E+00
    0.85717069475377438703E+00
    0.14477511074560689419E+00
    0.59667762383317168862E+00
    0.26593815068412063329E+00
    0.20688575895604272015E+00
    0.54580148923235460856E+00
    0.76715232096278107576E+00
    0.81237079431046188560E+00
    0.59789122023698837438E+00
    0.86681169545606229221E+00
    0.43309693807603744098E+00
    0.45597168224677464554E-01
    0.15324392168320025154E+00
    0.60134195962566139304E-01
    0.46168728272000074397E-01
    0.70770971229696708060E-01
    0.18794021120031003530E-01
    0.19177762883402168365E-01
    0.23605228740628050876E-01
    0.13779588270151578791E-01
    0.25124083985495766769E-01
    0.80406474396334859378E-01
    0.48612853829527596927E+00
    0.19370620901947033232E+00
    0.65733141860767252407E+00
    0.48927414828347542963E+00
    0.76543034658743447363E+00
    0.66429323036162779559E+00
    0.85382299012294660123E+00
    0.86446751564320012395E+00
    0.86407254320677251425E+00
    0.84497312383745248887E+00
    0.82871635279239830307E+00
    0.85497674893955155628E+00
    0.82578383173196279188E+00
    0.84696941439714387712E-01
    0.23833396322032004977E-01
    0.39832923638591061222E-01
    0.78933338633941052542E+00
    0.18787434692215485010E+00
    0.66426525209747477874E+00
    0.16655154106246187334E-01
    0.21453359233856980626E-01
    0.28355686262823750349E-01
    0.50559689096153596910E-01
    0.31314439572171684500E-01
    0.31155634574100171674E-01
    0.55820698934593807050E-01
    0.12613471174169940681E+00
    0.25905352149154009522E+00
    0.38371862032675990717E+00
    0.60606853422680617705E+00
    0.69298768944185817897E+00
    0.85471088470138956161E+00
    0.79162969633185453766E+00
    0.38141019358721672816E+00
    0.76065449195719347930E+00
    0.78259865245897453079E+00
    0.14753452120986745855E+00
    0.26922310054194914519E+00
    0.80479260088285209385E+00
    0.84244598404862880425E+00
    0.59117749050043695569E-01
    0.21102094503951680793E-01
    0.22541798918807517960E-01
    0.22858385001657602342E+00
    0.28989722139164130627E-01
    0.21332940564646137027E-01
    0.78106077296591724934E+00
    0.65114511725958279520E+00
    0.21054042766235597783E+00
    0.80640624246173620016E+00
    0.46421986435422402106E+00
    0.41695004771920085584E+00
    0.96787540694331611335E-01
    0.59610654975390149624E-01
    0.38855381286704605837E-01
    0.79093378411448100884E+00
    0.86059398548912358073E+00
    0.67174158940393691175E+00
    0.40530174976232236084E-01
    0.25976504287124450171E-01
    0.25200737056602029451E-01
    0.26148817788269627937E-01
    0.16659986981861395899E-01
    0.20663092603138765585E-01
    0.81500490280533821608E+00
    0.30602497268872547176E+00
    0.73204256215419305498E+00
    0.82978422803331086666E+00
    0.51833879911776059579E+00
    0.84174577186071009027E+00
    0.86202695132470585904E+00
    0.79115204713549058813E+00
    0.17033751268881122676E+00
    0.76327689843721047147E+00
    0.73178350696220628713E+00
    0.20326127106238031650E+00
    0.60797073878805485414E+00
    0.49294663783344588870E+00
    0.10857122331171557839E+00
    0.84742035170644913755E+00
    0.82428347308907545798E+00
    0.21041440758623526641E-01
    0.52025365929533509690E-01
    0.34953626489523874354E-01
    0.35646618462394523419E-01
    0.42336528763653419327E+00
    0.16678106569272246884E+00
    0.21348041283815726021E-01
    0.21945606121484276946E-01
    0.76315183499459615657E+00
    0.14806081113982727526E+00
    0.10155487585552515351E+00
    0.67632020479473708985E+00
    0.42977917574200920348E-01
    0.76994370636947362385E+00
    0.24067444628556100561E+00
    0.32807100048594939334E-01
    0.80569351424563573350E+00
    0.83963486611385618197E+00
    0.86832410300519846658E+00
    0.47516457397037537014E+00
    0.82402554616128498299E+00
    0.49976797796624838899E-01
    0.51013828251535636715E-01
    0.37246028623670002222E+00
    0.71112743031632363877E+00
    0.83479877391725598734E+00
    0.84473235313904160293E-01
    0.84076164177243284392E+00
    0.87781319437485338941E+00
    0.63443771783775262940E-01
    0.92237102851330285413E-01
    0.10963705101850308374E-01
    0.29834178291138677662E-02
    0.13933016896545052932E-01
    0.30279586405483381942E-02
    0.84271847502959684739E-01
    0.10496363208930228894E+00
    0.35363576004500019145E+00
    0.22791655546186409542E+00
    0.16326965981785176302E-01
    0.24987591518309728439E-01
    0.14251533445486933016E+00
    0.29493732661672478201E+00
    0.31623243704059356141E+00
    0.23081522009420127328E+00
    0.58016698061221859406E-01
    0.33768864820385262326E-02
    0.33920221905894372069E-02
    0.21336284956242103361E-02
    0.13395662163795908281E-02
    0.11302280703012245258E-02
    0.43596209795807557355E-02
    0.21675943496017584244E-01
    0.30043340201339970713E-01
    0.73127823234778463815E-02
    0.21968237031629524354E-02
    0.37348863365400690115E-02
    0.98872781403819016283E-02
    0.53110624942741400945E-01
    0.18554632849679369988E+00
    0.64803889603266720369E-03
    0.20649101636547459383E-03
    0.17075380626253318763E-03
    0.51840325544637918132E-03
    0.17097752680582298766E-02
    0.21681003253736702563E-01
    0.98353590186365066894E-01
