# vtk DataFile Version 3.0
LAPLACIEN  2D
ASCII
DATASET UNSTRUCTURED_GRID
 POINTS         391  float
  0.50371505999999999       0.50367786999999997        0.0000000000000000     
  0.29013556000000001       0.29014535000000002        0.0000000000000000     
  0.70165584999999997       0.71206597999999999        0.0000000000000000     
  0.70304188999999995       0.30176619999999998        0.0000000000000000     
  0.30920671999999999       0.71149227999999998        0.0000000000000000     
  0.79044983999999996       0.49884783999999999        0.0000000000000000     
  0.49102621000000002       0.20968644000000000        0.0000000000000000     
  0.49912957000000002       0.77208717000000004        0.0000000000000000     
  0.21724072999999999       0.48989389000000000        0.0000000000000000     
  0.83255933999999998       0.83046598000000005        0.0000000000000000     
  0.16646774000000000       0.17015694000000001        0.0000000000000000     
  0.83054514999999995       0.16736480000000001        0.0000000000000000     
  0.16953130999999999       0.83265739000000005        0.0000000000000000     
  0.42166445000000002       0.36345201999999999        0.0000000000000000     
  0.64462200999999997       0.56347807999999999        0.0000000000000000     
  0.35324633999999999       0.56311191000000005        0.0000000000000000     
  0.65456411000000003       0.84856860999999995        0.0000000000000000     
  0.35141477999999998       0.15563974000000000        0.0000000000000000     
  0.15290967000000000       0.35206625000000003        0.0000000000000000     
  0.82942241000000005       0.34936866000000000        0.0000000000000000     
  0.84390527000000004       0.64441694999999999        0.0000000000000000     
  0.63699174999999997       0.14284276000000001        0.0000000000000000     
  0.15620682999999999       0.64648446999999998        0.0000000000000000     
  0.36426062999999997       0.85756310999999996        0.0000000000000000     
  0.63489340999999999       0.40519052000000000        0.0000000000000000     
  0.52518872999999999       0.65957078000000002        0.0000000000000000     
  0.32158959999999998       0.42298103999999997        0.0000000000000000     
  0.58861710000000000       0.31711036999999997        0.0000000000000000     
  0.42078418000000001       0.69497151999999995        0.0000000000000000     
  0.48608786999999998       0.89334152000000000        0.0000000000000000     
   9.7084320000000002E-002  0.50000000000000000        0.0000000000000000     
  0.90291568000000000       0.50000000000000000        0.0000000000000000     
  0.51392453000000005       0.10668648999999999        0.0000000000000000     
  0.59792566999999996       0.73122754000000001        0.0000000000000000     
  0.74510058999999995       0.41124730999999998        0.0000000000000000     
  0.73212551999999997       0.90191560000000004        0.0000000000000000     
   9.7784830000000003E-002  0.26957329000000002        0.0000000000000000     
  0.26711221000000002        9.8671499999999995E-002   0.0000000000000000     
  0.90191560000000004       0.26787448000000003        0.0000000000000000     
  0.90118569000000004       0.73039821000000005        0.0000000000000000     
  0.73122947000000005        9.8017859999999998E-002   0.0000000000000000     
   9.8084400000000002E-002  0.73212551999999997        0.0000000000000000     
  0.26957329000000002       0.90221516999999996        0.0000000000000000     
  0.39283522999999998       0.25360379000000000        0.0000000000000000     
  0.74480864000000002       0.60495284999999999        0.0000000000000000     
  0.25505132000000003       0.60593640999999998        0.0000000000000000     
  0.52159297999999998       0.40671636000000000        0.0000000000000000     
  0.40768852000000000       0.47699891000000000        0.0000000000000000     
   9.1467049999999994E-002   9.1876959999999994E-002   0.0000000000000000     
  0.90842484999999995       0.90819225000000003        0.0000000000000000     
  0.90820104999999995        9.1566729999999999E-002   0.0000000000000000     
   9.1807449999999999E-002  0.90843574000000005        0.0000000000000000     
  0.27098960000000000       0.20527094000000001        0.0000000000000000     
  0.73457293999999995       0.79835387000000002        0.0000000000000000     
  0.79817773000000003       0.25713470999999999        0.0000000000000000     
  0.20747797000000001       0.72863946000000002        0.0000000000000000     
  0.20175195000000001       0.27583914999999998        0.0000000000000000     
  0.79603889000000005       0.72159035000000005        0.0000000000000000     
  0.71761666000000002       0.19748431999999999        0.0000000000000000     
  0.28462607000000001       0.80251899999999998        0.0000000000000000     
  0.69134598999999997       0.49261972999999998        0.0000000000000000     
  0.44720578999999999       0.58582935999999997        0.0000000000000000     
  0.24242269999999999       0.37228174000000003        0.0000000000000000     
  0.38265623999999998       0.93072131999999996        0.0000000000000000     
  0.60971754000000000       0.91988369000000003        0.0000000000000000     
   7.9163609999999995E-002  0.60979116000000000        0.0000000000000000     
  0.92010649000000000       0.61081183999999999        0.0000000000000000     
  0.61954008999999999        7.1530830000000004E-002   0.0000000000000000     
  0.91882012999999996       0.38917363999999999        0.0000000000000000     
  0.39086346000000000        8.0652249999999995E-002   0.0000000000000000     
   7.9183480000000001E-002  0.38966213000000000        0.0000000000000000     
  0.59114111999999996       0.49294315000000000        0.0000000000000000     
  0.63337980999999999       0.64485914000000000        0.0000000000000000     
  0.50012352000000004       0.29676539000000002        0.0000000000000000     
  0.82552601000000003       0.92753492000000004        0.0000000000000000     
  0.92774772999999999       0.82498556999999995        0.0000000000000000     
   7.1970870000000006E-002  0.17510291000000000        0.0000000000000000     
  0.17422821999999999        7.2635640000000001E-002   0.0000000000000000     
  0.82510813000000005        7.2134840000000006E-002   0.0000000000000000     
  0.92754665000000003       0.17446275999999999        0.0000000000000000     
  0.17501022999999999       0.92789951999999998        0.0000000000000000     
   7.2464680000000004E-002  0.82554053000000005        0.0000000000000000     
  0.30731587999999999       0.50885354999999999        0.0000000000000000     
  0.59033407999999998       0.22171178999999999        0.0000000000000000     
  0.40109191999999999       0.78725542000000004        0.0000000000000000     
  0.35420917000000002       0.63754104000000000        0.0000000000000000     
  0.15983976999999999       0.56665573000000002        0.0000000000000000     
  0.84108459999999996       0.56757886999999996        0.0000000000000000     
  0.83902096000000004       0.43344338999999998        0.0000000000000000     
  0.43230028999999998       0.16004268999999999        0.0000000000000000     
  0.57536027999999995       0.83041363999999995        0.0000000000000000     
  0.15771898000000001       0.42747892999999998        0.0000000000000000     
  0.34021692999999997       0.34221559000000001        0.0000000000000000     
  0.56002271999999997       0.57501117999999996        0.0000000000000000     
  0.65344329000000001       0.78147597999999996        0.0000000000000000     
   0.0000000000000000        0.0000000000000000        0.0000000000000000     
   1.0000000000000000        0.0000000000000000        0.0000000000000000     
   1.0000000000000000        1.0000000000000000        0.0000000000000000     
   0.0000000000000000        1.0000000000000000        0.0000000000000000     
  0.11111111000000000        0.0000000000000000        0.0000000000000000     
  0.22222222000000000        0.0000000000000000        0.0000000000000000     
  0.33333332999999998        0.0000000000000000        0.0000000000000000     
  0.44444444000000000        0.0000000000000000        0.0000000000000000     
  0.55555555999999995        0.0000000000000000        0.0000000000000000     
  0.66666667000000002        0.0000000000000000        0.0000000000000000     
  0.77777777999999997        0.0000000000000000        0.0000000000000000     
  0.88888889000000004        0.0000000000000000        0.0000000000000000     
   1.0000000000000000       0.11111111000000000        0.0000000000000000     
   1.0000000000000000       0.22222222000000000        0.0000000000000000     
   1.0000000000000000       0.33333332999999998        0.0000000000000000     
   1.0000000000000000       0.44444444000000000        0.0000000000000000     
   1.0000000000000000       0.55555555999999995        0.0000000000000000     
   1.0000000000000000       0.66666667000000002        0.0000000000000000     
   1.0000000000000000       0.77777777999999997        0.0000000000000000     
   1.0000000000000000       0.88888889000000004        0.0000000000000000     
  0.88888889000000004        1.0000000000000000        0.0000000000000000     
  0.77777777999999997        1.0000000000000000        0.0000000000000000     
  0.66666667000000002        1.0000000000000000        0.0000000000000000     
  0.55555555999999995        1.0000000000000000        0.0000000000000000     
  0.44444444000000000        1.0000000000000000        0.0000000000000000     
  0.33333332999999998        1.0000000000000000        0.0000000000000000     
  0.22222222000000000        1.0000000000000000        0.0000000000000000     
  0.11111111000000000        1.0000000000000000        0.0000000000000000     
   0.0000000000000000       0.11111111000000000        0.0000000000000000     
   0.0000000000000000       0.22222222000000000        0.0000000000000000     
[...]
 CELL_DATA         354
 SCALARS U float
 LOOKUP_TABLE default
    0.10217800225429938781E-04
    0.72593595015268928827E-02
    0.53575591038060359434E-04
    0.20178261816295220941E-03
    0.13055147132984602990E-04
    0.58974206911073989625E-03
    0.40957936731248461432E-02
    0.11345146152805633561E-02
    0.48869682283348746601E-02
    0.36182162091517519609E-02
    0.32128058473801994303E-02
    0.34270430217903757701E-02
    0.42925939881956311564E-02
    0.42814089554224056891E-02
    0.43587450611308033513E-02
    0.39015133670588985834E-02
    0.31143570668886269050E-02
    0.18552526975517500286E-02
    0.54300339762823239889E-02
    0.22223515765760607811E-02
    0.66762469272642743084E-02
    0.50683729532238538246E-02
    0.40183537126064327455E-02
    0.31274503940129354945E-02
    0.33868326859069269527E-02
    0.22445697568106667309E-02
    0.43991755231426333400E-02
    0.28633746675105252802E-02
    0.47473286750374012882E-02
    0.22476058644222180090E-02
    0.14902022111939216452E-04
    0.22094845109095343546E-04
    0.16599789131775791905E-04
    0.13378327951631364541E-04
    0.24638023668192135166E-04
    0.20961513967250888112E-04
    0.31155185718599965672E-04
    0.20715952330158902565E-04
    0.97915036167373563331E-05
    0.10449031848748726881E-04
    0.75623011014985280938E-05
    0.69243136864140727112E-05
    0.74541394603726774664E-05
    0.68363460139072316094E-05
    0.81830958685521421259E-05
    0.47667935382587676123E-05
    0.10705107986590037397E-04
    0.65534700333185555912E-05
    0.29093070605118818560E-04
    0.68261728277885239048E-04
    0.14715857617392344870E-03
    0.92195111459059152833E-04
    0.93537895506806067677E-05
    0.33380302023163343322E-05
    0.10663573224454434154E-04
    0.31785152866166174424E-05
    0.10651326462506049297E-04
    0.78203755245548263350E-05
    0.10286743781890616618E-04
    0.78152267329121563670E-05
    0.10416821113024590830E-04
    0.80353929450119765155E-05
    0.96392825770089539703E-05
    0.87198069719235766849E-05
    0.19491834000284486149E-04
    0.23315178842308122734E-04
    0.59662205610252970716E-04
    0.46918378887133954625E-04
    0.30573377547411812599E-02
    0.48618806884377510982E-02
    0.37510887359487625134E-02
    0.44568565472957576840E-02
    0.44979310020439797202E-02
    0.43102601751674003358E-02
    0.34990743243386046059E-02
    0.27247816932499690536E-02
    0.34365048958588969956E-02
    0.55379046503029891527E-02
    0.39202986349972639840E-02
    0.32098182748128162994E-02
    0.22650422048130849917E-02
    0.23711331086681422878E-02
    0.58777887182568135105E-02
    0.11058648682312098230E-02
    0.29458705350270037761E-02
    0.53832869128278759349E-02
    0.16207366631724819984E-02
    0.60842556741103242038E-02
    0.36490558893890103626E-02
    0.71415501438790666283E-02
    0.47571140346031118296E-02
    0.24983784933021724317E-02
    0.18766820502981022313E-02
    0.56548364202986015038E-04
    0.46318486224091445292E-04
    0.79991516740428374134E-04
    0.42671986719483769729E-02
    0.29533595537331314151E-02
    0.40870520235174465432E-02
    0.34835648642360366595E-02
    0.46872758865308178020E-02
    0.31352294245465864818E-02
    0.42780083151539695721E-02
    0.59157244906036243748E-02
    0.44832484984084182769E-02
    0.81743425224722991718E-02
    0.93812285732275471628E-02
    0.44119808923603958881E-02
    0.34722367287527665380E-02
    0.35845234111334563221E-02
    0.43864291711535039787E-04
    0.21985079282128309683E-02
    0.18895086679608737081E-02
    0.12331047548807523660E-02
    0.31293428201581759834E-02
    0.32482818399527644583E-02
    0.40859265102638347988E-02
    0.19548382357630544534E-02
    0.45316561257848402347E-02
    0.18732475565599914294E-02
    0.29215655874491324069E-02
    0.20339119640566740316E-04
    0.28923035922922260874E-04
    0.27990731723779110570E-04
    0.40480214349299085031E-04
    0.48611898961657696845E-04
    0.21827822325123931961E-04
    0.25307456993370656224E-04
    0.28338338393024708507E-02
    0.30703944514964146353E-02
    0.20852579979011207599E-02
    0.40987489009213376803E-02
    0.43656946577499749704E-02
    0.44123511783492345897E-04
    0.30349760159047341201E-02
    0.35177680829088738869E-02
    0.50328480984141088159E-02
    0.30079530622702985686E-02
    0.43973208926922184581E-02
    0.39386941669945288447E-02
    0.37092308411854251274E-02
    0.31643084292507840140E-02
    0.16256884096509168505E-04
    0.14858841622832741320E-04
    0.15861008575376404217E-04
    0.24838846983066109185E-04
    0.17648048066928351426E-04
    0.14284153108944641755E-04
    0.14684266524177457073E-04
    0.37235571303761137198E-02
    0.47151587603920536856E-02
    0.61642295782156110440E-02
    0.43294270457987964543E-02
    0.66290491200770903374E-02
    0.50914721366110372511E-02
    0.34784569320942563750E-02
    0.46593575946351955056E-02
    0.40830516186477674306E-02
    0.34449263178745149691E-02
    0.49261402014232173741E-02
    0.34432572851763329838E-02
    0.37210516120929279515E-02
    0.28371377215940110986E-02
    0.20309078763883232216E-02
    0.34590072191004136472E-02
    0.24399028491198090300E-04
    0.43871392453011651190E-04
    0.23472585163542887153E-04
    0.39098796870121196672E-04
    0.51992296631380584173E-04
    0.41428049004360095395E-02
    0.47084962613873028101E-02
    0.39245376772276460015E-02
    0.56532189829096562289E-02
    0.51220947923673173716E-02
    0.27216170079388648032E-02
    0.24572592864234399195E-02
    0.19841228683025718266E-02
    0.29425505297651461875E-02
    0.16307462534510090701E-02
    0.43552485912964414294E-02
    0.39246747714804814527E-02
    0.47030848406866979441E-02
    0.32588463378428961584E-02
    0.41568962115262073423E-02
    0.13382699058415083605E-02
    0.38243856244390937726E-02
    0.14705556971507786380E-02
    0.10898111942222250999E-02
    0.31425710846871741933E-02
    0.55297931794707974595E-02
    0.44365353224226737605E-02
    0.65274258388123822944E-02
    0.46119429065396254364E-02
    0.57937732733207890704E-02
    0.28548555403366433905E-04
    0.91505041530232444718E-04
    0.37203780326062056466E-04
    0.27937678719631126549E-04
    0.44572408881581783587E-04
    0.12372495709324500988E-04
    0.13587988574680470293E-04
    0.16139932224802383559E-04
    0.92289580182464544335E-05
    0.17039864397773442329E-04
    0.27121250708790822434E-02
    0.60781132186329585310E-02
    0.54488827414923696191E-02
    0.31316565488161765551E-02
    0.61772006690676136906E-02
    0.32096486517958844678E-02
    0.29933842351492121435E-02
    0.32236861685220113624E-02
    0.30667654575280384015E-02
    0.35862421189919060742E-02
    0.49830940898635189482E-02
    0.35693730858764832585E-02
    0.35919754036674352710E-02
    0.54934803954832626960E-02
    0.19452307274856468593E-02
    0.91951778181068304519E-03
    0.61998848335654329483E-03
    0.27893752808160949576E-02
    0.19578446663093009537E-02
    0.29745535612762264571E-02
    0.10693952597375776332E-04
    0.13442858219656415622E-04
    0.18833163227930291273E-04
    0.29056956842984627248E-04
    0.18229166475186281535E-04
    0.18480878587863407673E-04
    0.10451080868892656354E-02
    0.21924024121253043486E-02
    0.60210855644615927235E-02
    0.30715547700726829154E-02
    0.44396789933700041633E-02
    0.24386270873462539965E-02
    0.55619269034143702449E-02
    0.43123025807659982889E-02
    0.59927652360778297519E-02
    0.53018027599728741184E-02
    0.56185666630283346776E-02
    0.14244148498424493831E-02
    0.58369353456539209771E-03
    0.43265215847532014284E-02
    0.35086057835886906055E-02
    0.34021376822201966595E-04
    0.13467682224013543770E-04
    0.15187428201595726504E-04
    0.41896235724031413369E-02
    0.14582633939314634114E-02
    0.16334440861904436939E-04
    0.34965596743573041510E-02
    0.45922474413140467603E-02
    0.20436244818366937695E-02
    0.34885937003643328370E-02
    0.34229320203041655249E-02
    0.36771029080679496284E-02
    0.71994876780188444849E-03
    0.62335078777106902627E-03
    0.26017424208052825063E-04
    0.47532493084659422147E-02
    0.49685486172238750233E-02
    0.37564846401253182417E-02
    0.26770340817291387263E-04
    0.17091260112443942983E-04
    0.18025351106777753825E-04
    0.18385215576859722695E-04
    0.11617203535858889858E-04
    0.15119747507804997153E-04
    0.29555085602506899443E-02
    0.42583867723001503358E-02
    0.52504969944609600901E-02
    0.56677575592375397870E-02
    0.24925694972726345627E-02
    0.32723572532558533980E-02
    0.34342276333208174299E-02
    0.37164501519626946466E-02
    0.89716697015485564310E-04
    0.42257424507674175296E-02
    0.42368509385622248054E-02
    0.85491404100411266982E-03
    0.33361274425160935761E-02
    0.66088918038425190082E-02
    0.50558176977185086132E-02
    0.45001232598021832093E-02
    0.36056906493723930342E-02
    0.12451762836873396233E-04
    0.20707282868515624469E-02
    0.24366518385238086211E-04
    0.26432176100512109421E-04
    0.22878394800996291678E-02
    0.47838360390568390040E-02
    0.15500585882252822088E-04
    0.16099415829154366779E-04
    0.27057920961783442013E-02
    0.15498863557669080061E-02
    0.74339954592082509513E-03
    0.48644155602621487119E-02
    0.28351238457065535553E-04
    0.22057958687358453914E-02
    0.92925408839707283881E-02
    0.22315556444184328163E-04
    0.43900118447628292198E-02
    0.23331754424606508495E-02
    0.43065431806582205043E-02
    0.16204345775679498704E-02
    0.39834044977430736051E-02
    0.28420326829899619553E-04
    0.29986034165139234298E-04
    0.43554356766938653878E-02
    0.26232162764918891089E-02
    0.44522037344197984768E-02
    0.14896773243290894247E-02
    0.42609057383154744572E-02
    0.36260209506125684609E-02
    0.70051239527348279149E-02
    0.21260635229843023253E-03
    0.74319349460972015568E-05
    0.20011792002868599233E-05
    0.44184955867098280047E-02
    0.28020127694028287672E-02
    0.63529300562590516844E-04
    0.70248171595526778051E-04
    0.28508978065985775578E-03
    0.19148360187607523387E-03
    0.57488263136655948660E-03
    0.32059757198369433218E-02
    0.18822778788576109438E-02
    0.42508097754380726185E-02
    0.50720494089761519046E-02
    0.29706099605364523833E-02
    0.81818700134889707325E-03
    0.79786306302896041562E-03
    0.92584440127171496043E-03
    0.36161687646492720770E-03
    0.20871270394695381339E-02
    0.15068098502757275046E-05
    0.31054536930869595858E-05
    0.15016987322198054863E-04
    0.19149615044308322052E-04
    0.45551207646914932997E-05
    0.13999327343190701984E-05
    0.23314035297461240280E-05
    0.58931631679430268448E-05
    0.35353925591740268460E-04
    0.13868138670527387752E-03
    0.46588969320230735709E-06
    0.15376461981896039117E-06
    0.12768465709292456479E-06
    0.36963441887032835899E-06
    0.12065034722067290901E-05
    0.14039539063946574499E-04
    0.68819699043681995649E-04
