# vtk DataFile Version 3.0
LAPLACIEN  2D
ASCII
DATASET UNSTRUCTURED_GRID
 POINTS         391  float
  0.50371505999999999       0.50367786999999997        0.0000000000000000     
  0.29013556000000001       0.29014535000000002        0.0000000000000000     
  0.70165584999999997       0.71206597999999999        0.0000000000000000     
  0.70304188999999995       0.30176619999999998        0.0000000000000000     
  0.30920671999999999       0.71149227999999998        0.0000000000000000     
  0.79044983999999996       0.49884783999999999        0.0000000000000000     
  0.49102621000000002       0.20968644000000000        0.0000000000000000     
  0.49912957000000002       0.77208717000000004        0.0000000000000000     
  0.21724072999999999       0.48989389000000000        0.0000000000000000     
  0.83255933999999998       0.83046598000000005        0.0000000000000000     
  0.16646774000000000       0.17015694000000001        0.0000000000000000     
  0.83054514999999995       0.16736480000000001        0.0000000000000000     
  0.16953130999999999       0.83265739000000005        0.0000000000000000     
  0.42166445000000002       0.36345201999999999        0.0000000000000000     
  0.64462200999999997       0.56347807999999999        0.0000000000000000     
  0.35324633999999999       0.56311191000000005        0.0000000000000000     
  0.65456411000000003       0.84856860999999995        0.0000000000000000     
  0.35141477999999998       0.15563974000000000        0.0000000000000000     
  0.15290967000000000       0.35206625000000003        0.0000000000000000     
  0.82942241000000005       0.34936866000000000        0.0000000000000000     
  0.84390527000000004       0.64441694999999999        0.0000000000000000     
  0.63699174999999997       0.14284276000000001        0.0000000000000000     
  0.15620682999999999       0.64648446999999998        0.0000000000000000     
  0.36426062999999997       0.85756310999999996        0.0000000000000000     
  0.63489340999999999       0.40519052000000000        0.0000000000000000     
  0.52518872999999999       0.65957078000000002        0.0000000000000000     
  0.32158959999999998       0.42298103999999997        0.0000000000000000     
  0.58861710000000000       0.31711036999999997        0.0000000000000000     
  0.42078418000000001       0.69497151999999995        0.0000000000000000     
  0.48608786999999998       0.89334152000000000        0.0000000000000000     
   9.7084320000000002E-002  0.50000000000000000        0.0000000000000000     
  0.90291568000000000       0.50000000000000000        0.0000000000000000     
  0.51392453000000005       0.10668648999999999        0.0000000000000000     
  0.59792566999999996       0.73122754000000001        0.0000000000000000     
  0.74510058999999995       0.41124730999999998        0.0000000000000000     
  0.73212551999999997       0.90191560000000004        0.0000000000000000     
   9.7784830000000003E-002  0.26957329000000002        0.0000000000000000     
  0.26711221000000002        9.8671499999999995E-002   0.0000000000000000     
  0.90191560000000004       0.26787448000000003        0.0000000000000000     
  0.90118569000000004       0.73039821000000005        0.0000000000000000     
  0.73122947000000005        9.8017859999999998E-002   0.0000000000000000     
   9.8084400000000002E-002  0.73212551999999997        0.0000000000000000     
  0.26957329000000002       0.90221516999999996        0.0000000000000000     
  0.39283522999999998       0.25360379000000000        0.0000000000000000     
  0.74480864000000002       0.60495284999999999        0.0000000000000000     
  0.25505132000000003       0.60593640999999998        0.0000000000000000     
  0.52159297999999998       0.40671636000000000        0.0000000000000000     
  0.40768852000000000       0.47699891000000000        0.0000000000000000     
   9.1467049999999994E-002   9.1876959999999994E-002   0.0000000000000000     
  0.90842484999999995       0.90819225000000003        0.0000000000000000     
  0.90820104999999995        9.1566729999999999E-002   0.0000000000000000     
   9.1807449999999999E-002  0.90843574000000005        0.0000000000000000     
  0.27098960000000000       0.20527094000000001        0.0000000000000000     
  0.73457293999999995       0.79835387000000002        0.0000000000000000     
  0.79817773000000003       0.25713470999999999        0.0000000000000000     
  0.20747797000000001       0.72863946000000002        0.0000000000000000     
  0.20175195000000001       0.27583914999999998        0.0000000000000000     
  0.79603889000000005       0.72159035000000005        0.0000000000000000     
  0.71761666000000002       0.19748431999999999        0.0000000000000000     
  0.28462607000000001       0.80251899999999998        0.0000000000000000     
  0.69134598999999997       0.49261972999999998        0.0000000000000000     
  0.44720578999999999       0.58582935999999997        0.0000000000000000     
  0.24242269999999999       0.37228174000000003        0.0000000000000000     
  0.38265623999999998       0.93072131999999996        0.0000000000000000     
  0.60971754000000000       0.91988369000000003        0.0000000000000000     
   7.9163609999999995E-002  0.60979116000000000        0.0000000000000000     
  0.92010649000000000       0.61081183999999999        0.0000000000000000     
  0.61954008999999999        7.1530830000000004E-002   0.0000000000000000     
  0.91882012999999996       0.38917363999999999        0.0000000000000000     
  0.39086346000000000        8.0652249999999995E-002   0.0000000000000000     
   7.9183480000000001E-002  0.38966213000000000        0.0000000000000000     
  0.59114111999999996       0.49294315000000000        0.0000000000000000     
  0.63337980999999999       0.64485914000000000        0.0000000000000000     
  0.50012352000000004       0.29676539000000002        0.0000000000000000     
  0.82552601000000003       0.92753492000000004        0.0000000000000000     
  0.92774772999999999       0.82498556999999995        0.0000000000000000     
   7.1970870000000006E-002  0.17510291000000000        0.0000000000000000     
  0.17422821999999999        7.2635640000000001E-002   0.0000000000000000     
  0.82510813000000005        7.2134840000000006E-002   0.0000000000000000     
  0.92754665000000003       0.17446275999999999        0.0000000000000000     
  0.17501022999999999       0.92789951999999998        0.0000000000000000     
   7.2464680000000004E-002  0.82554053000000005        0.0000000000000000     
  0.30731587999999999       0.50885354999999999        0.0000000000000000     
  0.59033407999999998       0.22171178999999999        0.0000000000000000     
  0.40109191999999999       0.78725542000000004        0.0000000000000000     
  0.35420917000000002       0.63754104000000000        0.0000000000000000     
  0.15983976999999999       0.56665573000000002        0.0000000000000000     
  0.84108459999999996       0.56757886999999996        0.0000000000000000     
  0.83902096000000004       0.43344338999999998        0.0000000000000000     
  0.43230028999999998       0.16004268999999999        0.0000000000000000     
  0.57536027999999995       0.83041363999999995        0.0000000000000000     
  0.15771898000000001       0.42747892999999998        0.0000000000000000     
  0.34021692999999997       0.34221559000000001        0.0000000000000000     
  0.56002271999999997       0.57501117999999996        0.0000000000000000     
  0.65344329000000001       0.78147597999999996        0.0000000000000000     
   0.0000000000000000        0.0000000000000000        0.0000000000000000     
   1.0000000000000000        0.0000000000000000        0.0000000000000000     
   1.0000000000000000        1.0000000000000000        0.0000000000000000     
   0.0000000000000000        1.0000000000000000        0.0000000000000000     
  0.11111111000000000        0.0000000000000000        0.0000000000000000     
  0.22222222000000000        0.0000000000000000        0.0000000000000000     
  0.33333332999999998        0.0000000000000000        0.0000000000000000     
  0.44444444000000000        0.0000000000000000        0.0000000000000000     
  0.55555555999999995        0.0000000000000000        0.0000000000000000     
  0.66666667000000002        0.0000000000000000        0.0000000000000000     
  0.77777777999999997        0.0000000000000000        0.0000000000000000     
  0.88888889000000004        0.0000000000000000        0.0000000000000000     
   1.0000000000000000       0.11111111000000000        0.0000000000000000     
   1.0000000000000000       0.22222222000000000        0.0000000000000000     
   1.0000000000000000       0.33333332999999998        0.0000000000000000     
   1.0000000000000000       0.44444444000000000        0.0000000000000000     
   1.0000000000000000       0.55555555999999995        0.0000000000000000     
   1.0000000000000000       0.66666667000000002        0.0000000000000000     
   1.0000000000000000       0.77777777999999997        0.0000000000000000     
   1.0000000000000000       0.88888889000000004        0.0000000000000000     
  0.88888889000000004        1.0000000000000000        0.0000000000000000     
  0.77777777999999997        1.0000000000000000        0.0000000000000000     
  0.66666667000000002        1.0000000000000000        0.0000000000000000     
  0.55555555999999995        1.0000000000000000        0.0000000000000000     
  0.44444444000000000        1.0000000000000000        0.0000000000000000     
  0.33333332999999998        1.0000000000000000        0.0000000000000000     
  0.22222222000000000        1.0000000000000000        0.0000000000000000     
  0.11111111000000000        1.0000000000000000        0.0000000000000000     
   0.0000000000000000       0.11111111000000000        0.0000000000000000     
   0.0000000000000000       0.22222222000000000        0.0000000000000000     
[...]
 CELL_DATA         354
 SCALARS U float
 LOOKUP_TABLE default
    0.55435294585601787564E-05
    0.48684861209423793693E-02
    0.33359961652310134498E-04
    0.13358458730945086930E-03
    0.70978226802626184823E-05
    0.41811430206063450931E-03
    0.26456236022255321880E-02
    0.75892903309547848998E-03
    0.32464375312818956679E-02
    0.27721729920970809673E-02
    0.26009736813623414615E-02
    0.27847172493390918296E-02
    0.34837266498944446068E-02
    0.34560629811757424129E-02
    0.35716851832712972342E-02
    0.31617084327124796161E-02
    0.24309163661980072273E-02
    0.13022821476691706036E-02
    0.40839598806138690049E-02
    0.15057227376758560832E-02
    0.42894472376526441432E-02
    0.35943370532682790766E-02
    0.28799292706034968978E-02
    0.19850887713837900468E-02
    0.23859407705534101639E-02
    0.14581012203903121784E-02
    0.29240320504680525002E-02
    0.21171579335144577287E-02
    0.27145177771575306619E-02
    0.12278771049057720516E-02
    0.86012589741167869617E-05
    0.12972068860637756492E-04
    0.95026796801385835558E-05
    0.77085661067364170701E-05
    0.14411797406311113438E-04
    0.12165606786321085507E-04
    0.18186634819572389146E-04
    0.11980295691237437763E-04
    0.53658947003907951582E-05
    0.58322917927704704045E-05
    0.41789586959887948340E-05
    0.37041282167928021952E-05
    0.40530283781324067237E-05
    0.36591134031340974486E-05
    0.44250129905797905484E-05
    0.25109355829174312034E-05
    0.60559404731565677653E-05
    0.34862821963240152809E-05
    0.17716644960289142698E-04
    0.43411043122169119726E-04
    0.97094918728691636655E-04
    0.59671943046835980049E-04
    0.51076002040056890123E-05
    0.16663054497883761324E-05
    0.59526538167312909323E-05
    0.15904427329096378441E-05
    0.59533847677213179558E-05
    0.42540799182408739959E-05
    0.57010153091114056665E-05
    0.42462198431494210400E-05
    0.57595898651478960419E-05
    0.44139813800404655294E-05
    0.55014607980287813987E-05
    0.47862777363624961615E-05
    0.11283979029559582929E-04
    0.13425545010835072889E-04
    0.36848348346660731324E-04
    0.29278063681332932189E-04
    0.24144869149563285594E-02
    0.39480549931935112612E-02
    0.30795057056865900690E-02
    0.36229511867501293723E-02
    0.37608369343219284590E-02
    0.36008965809853871014E-02
    0.29021905077282455360E-02
    0.21939527338291752584E-02
    0.27954055885130038930E-02
    0.46536366975893795478E-02
    0.27126832498180772704E-02
    0.21396495244205191409E-02
    0.15872190286704626616E-02
    0.14429947092382973926E-02
    0.42032225161977784800E-02
    0.76328302468442780441E-03
    0.23645945335648162720E-02
    0.34956062763874550837E-02
    0.68950236935788860714E-03
    0.45231223203983234038E-02
    0.28446053927824732632E-02
    0.51377347801458304530E-02
    0.31532980493809686234E-02
    0.17998408752872543850E-02
    0.95008924576822986752E-03
    0.33095973240342490911E-04
    0.27161681239049420713E-04
    0.80493301077154259283E-04
    0.26541365031797700680E-02
    0.24159366177118083915E-02
    0.33808642513345251585E-02
    0.28680894914280032071E-02
    0.39176767026190047888E-02
    0.25509906099288864184E-02
    0.35910494264305577693E-02
    0.45756901875289683612E-02
    0.34527806263170875145E-02
    0.50795314865213743796E-02
    0.59574778019197234188E-02
    0.31201859578606117203E-02
    0.24378678029552802026E-02
    0.23746885466679676369E-02
    0.25709273406185326519E-04
    0.13355130363948228972E-02
    0.11884875327369986194E-02
    0.73558055542802648977E-03
    0.23421046122458480040E-02
    0.22636354725452056090E-02
    0.27411532826322536176E-02
    0.13237872383150817417E-02
    0.32852768679446594548E-02
    0.98532272028483509560E-03
    0.20922820099560594104E-02
    0.11660586162331687296E-04
    0.16809855774685051092E-04
    0.16504564775398194570E-04
    0.23704643276621205366E-04
    0.28868033445115741630E-04
    0.12646303613637588619E-04
    0.14789044666840488152E-04
    0.19434144291253028624E-02
    0.19984269746901586404E-02
    0.14248158141210588278E-02
    0.30074264083423938622E-02
    0.30923637490359876315E-02
    0.26195461781416235717E-04
    0.19742106612841998220E-02
    0.29213767564890747754E-02
    0.41055604383616953190E-02
    0.23196439039672930860E-02
    0.36348152033370997697E-02
    0.31948864304162409231E-02
    0.29211309347943691626E-02
    0.24977825943537320698E-02
    0.93245436291410055928E-05
    0.85742369437588160234E-05
    0.91418365208652752811E-05
    0.14396007067209861955E-04
    0.10090595204010430755E-04
    0.81516727469788865937E-05
    0.84108433655333636014E-05
    0.30395187986320252628E-02
    0.35023466004890898076E-02
    0.43649151506138343659E-02
    0.34738564120183265671E-02
    0.46504949814400869945E-02
    0.40404308230362019280E-02
    0.28506799401705096471E-02
    0.38885974873627271453E-02
    0.33756761329173973381E-02
    0.28281460935276952692E-02
    0.41603204347593538553E-02
    0.26563808272444884746E-02
    0.30206407876175946255E-02
    0.22724949284998797495E-02
    0.15426557029391638892E-02
    0.26761505885291307812E-02
    0.13761665816458327384E-04
    0.25392422149350778323E-04
    0.13134563861884895829E-04
    0.22403162745872895332E-04
    0.30588899615547358922E-04
    0.31937314998998719319E-02
    0.38995114649066158451E-02
    0.32258522544940629491E-02
    0.44674593322217700728E-02
    0.41461233726122932730E-02
    0.17896397546574077317E-02
    0.15075793838194456210E-02
    0.13747706876002683749E-02
    0.20060174628901278338E-02
    0.10562635690515886130E-02
    0.35517712912914393281E-02
    0.31982514055808519346E-02
    0.38189870157182095357E-02
    0.26290503180759006510E-02
    0.34574303472790644982E-02
    0.94376319739652905078E-03
    0.25347612316770008929E-02
    0.85886909311653548450E-03
    0.78641016567421628998E-03
    0.20850871431710893585E-02
    0.39714700292210738594E-02
    0.34035179824666570748E-02
    0.43759880291855367263E-02
    0.34281758863549580650E-02
    0.36077893903811802077E-02
    0.16494011339909041389E-04
    0.56458630413048817309E-04
    0.21625171799027224429E-04
    0.15967154956978084048E-04
    0.25856133285033269776E-04
    0.68186322784152348376E-05
    0.76991748419240625657E-05
    0.90929820003591317471E-05
    0.50286792170561516339E-05
    0.96010058998916694353E-05
    0.13228627828494265127E-02
    0.44749673904184838341E-02
    0.34749175358607430411E-02
    0.24886931795253574087E-02
    0.44432777714216867629E-02
    0.22520864915551389723E-02
    0.20076710493150988143E-02
    0.24867863791687870242E-02
    0.22204124072696357177E-02
    0.29402989122011150350E-02
    0.41402746674752801195E-02
    0.28049911367281753910E-02
    0.28210312960804907398E-02
    0.45716924520029181972E-02
    0.90738416205048784066E-03
    0.27409087743503093675E-03
    0.14491220519675213855E-03
    0.20737829004288661598E-02
    0.12647695030580817423E-02
    0.20679810746657267123E-02
    0.58200643894749058276E-05
    0.73203992927201980324E-05
    0.10544708236328087031E-04
    0.16587462256241364039E-04
    0.10094407443670123627E-04
    0.10174189367690095534E-04
    0.62515545787531162734E-03
    0.16279685780271511367E-02
    0.43007294554907211925E-02
    0.23259496691930107992E-02
    0.35640368033075377034E-02
    0.19612484400676789831E-02
    0.42419616896559875219E-02
    0.34631031178807233396E-02
    0.45117111218157500419E-02
    0.40824653002655315881E-02
    0.40458676721711215804E-02
    0.96251719062766640314E-03
    0.36720688992808155158E-03
    0.34922576298227177641E-02
    0.28955553910029112157E-02
    0.19743317562334556308E-04
    0.74029228175069932246E-05
    0.85740105947222223072E-05
    0.27638420611697887136E-02
    0.10293676216507384805E-02
    0.89552920989007818155E-05
    0.25389717689468676610E-02
    0.34411410773426912707E-02
    0.13142515237988818769E-02
    0.28512838855947412325E-02
    0.25079182303394597850E-02
    0.26943020734256791469E-02
    0.45411607845491808611E-03
    0.49026163078339781917E-03
    0.15142047260409092298E-04
    0.37176156325156375915E-02
    0.39105108798616720900E-02
    0.29577435711381750393E-02
    0.15521660717381525335E-04
    0.96442195367293119459E-05
    0.10395441215548794907E-04
    0.10573440349893088668E-04
    0.65618225077283433215E-05
    0.87064011784650117900E-05
    0.24349821022449798756E-02
    0.33509124508618575583E-02
    0.40071413811003375738E-02
    0.45686122070018380867E-02
    0.16358326620959820312E-02
    0.26866041445392186901E-02
    0.24781922490142438420E-02
    0.26090280876019992205E-02
    0.55358324078893326862E-04
    0.31102086501419191900E-02
    0.27949912383509953329E-02
    0.37459834648772107665E-03
    0.26063728171505755327E-02
    0.48064720361498539450E-02
    0.33022459445716904891E-02
    0.37103483946632539320E-02
    0.29343920417472459279E-02
    0.67159135038300244241E-05
    0.14155483820530989896E-02
    0.14265522003585777837E-04
    0.15601744638320126348E-04
    0.15732767085129754740E-02
    0.35210557092282732637E-02
    0.89469992540688926823E-05
    0.92980748983207181903E-05
    0.20906028851551024250E-02
    0.96331994229409943515E-03
    0.63816690546827838787E-03
    0.38505285854149914199E-02
    0.16392645728527582350E-04
    0.15119611133341660878E-02
    0.62258457301246541288E-02
    0.12692881180087842372E-04
    0.35735089096231098874E-02
    0.18051914836529625585E-02
    0.36122318027800750899E-02
    0.11534379878209567553E-02
    0.32920698934936929933E-02
    0.16181692018471077439E-04
    0.17205423287635047633E-04
    0.34637586131426945438E-02
    0.21278971679574774749E-02
    0.35559104238407066891E-02
    0.97832777135638672276E-03
    0.35445575166728063646E-02
    0.29966369066246559966E-02
    0.38735085538260717077E-02
    0.23657312233150382683E-03
    0.38871093234499562463E-05
    0.97371981698901216741E-06
    0.34498977215370492388E-02
    0.13925268175812625070E-02
    0.40181855654982950464E-04
    0.44138028876273649286E-04
    0.19074645586174033022E-03
    0.12645961798022148305E-03
    0.40919199024139907154E-03
    0.20282352606705951123E-02
    0.15503473899782331796E-02
    0.36972111071206623274E-02
    0.44426583039136671727E-02
    0.25209318117136851091E-02
    0.54229199656877149095E-03
    0.38579351436588457235E-03
    0.60824411379238997946E-03
    0.19113490763356634429E-03
    0.11652145169537796165E-02
    0.73584795012130304887E-06
    0.16016750989911521476E-05
    0.85229446840008106658E-05
    0.11017783853479792890E-04
    0.23600336054262533348E-05
    0.65066911806631258734E-06
    0.11322167909151187913E-05
    0.30615054175530819099E-05
    0.21607389540009123990E-04
    0.89673914901371995024E-04
    0.20602463045576452811E-06
    0.61822103280549010826E-07
    0.51143188803625576363E-07
    0.15874266439168042882E-06
    0.58985929915886464310E-06
    0.80908576625651546286E-05
    0.43193353280417640203E-04
