# vtk DataFile Version 3.0
LAPLACIEN  2D
ASCII
DATASET UNSTRUCTURED_GRID
 POINTS         391  float
  0.50371505999999999       0.50367786999999997        0.0000000000000000     
  0.29013556000000001       0.29014535000000002        0.0000000000000000     
  0.70165584999999997       0.71206597999999999        0.0000000000000000     
  0.70304188999999995       0.30176619999999998        0.0000000000000000     
  0.30920671999999999       0.71149227999999998        0.0000000000000000     
  0.79044983999999996       0.49884783999999999        0.0000000000000000     
  0.49102621000000002       0.20968644000000000        0.0000000000000000     
  0.49912957000000002       0.77208717000000004        0.0000000000000000     
  0.21724072999999999       0.48989389000000000        0.0000000000000000     
  0.83255933999999998       0.83046598000000005        0.0000000000000000     
  0.16646774000000000       0.17015694000000001        0.0000000000000000     
  0.83054514999999995       0.16736480000000001        0.0000000000000000     
  0.16953130999999999       0.83265739000000005        0.0000000000000000     
  0.42166445000000002       0.36345201999999999        0.0000000000000000     
  0.64462200999999997       0.56347807999999999        0.0000000000000000     
  0.35324633999999999       0.56311191000000005        0.0000000000000000     
  0.65456411000000003       0.84856860999999995        0.0000000000000000     
  0.35141477999999998       0.15563974000000000        0.0000000000000000     
  0.15290967000000000       0.35206625000000003        0.0000000000000000     
  0.82942241000000005       0.34936866000000000        0.0000000000000000     
  0.84390527000000004       0.64441694999999999        0.0000000000000000     
  0.63699174999999997       0.14284276000000001        0.0000000000000000     
  0.15620682999999999       0.64648446999999998        0.0000000000000000     
  0.36426062999999997       0.85756310999999996        0.0000000000000000     
  0.63489340999999999       0.40519052000000000        0.0000000000000000     
  0.52518872999999999       0.65957078000000002        0.0000000000000000     
  0.32158959999999998       0.42298103999999997        0.0000000000000000     
  0.58861710000000000       0.31711036999999997        0.0000000000000000     
  0.42078418000000001       0.69497151999999995        0.0000000000000000     
  0.48608786999999998       0.89334152000000000        0.0000000000000000     
   9.7084320000000002E-002  0.50000000000000000        0.0000000000000000     
  0.90291568000000000       0.50000000000000000        0.0000000000000000     
  0.51392453000000005       0.10668648999999999        0.0000000000000000     
  0.59792566999999996       0.73122754000000001        0.0000000000000000     
  0.74510058999999995       0.41124730999999998        0.0000000000000000     
  0.73212551999999997       0.90191560000000004        0.0000000000000000     
   9.7784830000000003E-002  0.26957329000000002        0.0000000000000000     
  0.26711221000000002        9.8671499999999995E-002   0.0000000000000000     
  0.90191560000000004       0.26787448000000003        0.0000000000000000     
  0.90118569000000004       0.73039821000000005        0.0000000000000000     
  0.73122947000000005        9.8017859999999998E-002   0.0000000000000000     
   9.8084400000000002E-002  0.73212551999999997        0.0000000000000000     
  0.26957329000000002       0.90221516999999996        0.0000000000000000     
  0.39283522999999998       0.25360379000000000        0.0000000000000000     
  0.74480864000000002       0.60495284999999999        0.0000000000000000     
  0.25505132000000003       0.60593640999999998        0.0000000000000000     
  0.52159297999999998       0.40671636000000000        0.0000000000000000     
  0.40768852000000000       0.47699891000000000        0.0000000000000000     
   9.1467049999999994E-002   9.1876959999999994E-002   0.0000000000000000     
  0.90842484999999995       0.90819225000000003        0.0000000000000000     
  0.90820104999999995        9.1566729999999999E-002   0.0000000000000000     
   9.1807449999999999E-002  0.90843574000000005        0.0000000000000000     
  0.27098960000000000       0.20527094000000001        0.0000000000000000     
  0.73457293999999995       0.79835387000000002        0.0000000000000000     
  0.79817773000000003       0.25713470999999999        0.0000000000000000     
  0.20747797000000001       0.72863946000000002        0.0000000000000000     
  0.20175195000000001       0.27583914999999998        0.0000000000000000     
  0.79603889000000005       0.72159035000000005        0.0000000000000000     
  0.71761666000000002       0.19748431999999999        0.0000000000000000     
  0.28462607000000001       0.80251899999999998        0.0000000000000000     
  0.69134598999999997       0.49261972999999998        0.0000000000000000     
  0.44720578999999999       0.58582935999999997        0.0000000000000000     
  0.24242269999999999       0.37228174000000003        0.0000000000000000     
  0.38265623999999998       0.93072131999999996        0.0000000000000000     
  0.60971754000000000       0.91988369000000003        0.0000000000000000     
   7.9163609999999995E-002  0.60979116000000000        0.0000000000000000     
  0.92010649000000000       0.61081183999999999        0.0000000000000000     
  0.61954008999999999        7.1530830000000004E-002   0.0000000000000000     
  0.91882012999999996       0.38917363999999999        0.0000000000000000     
  0.39086346000000000        8.0652249999999995E-002   0.0000000000000000     
   7.9183480000000001E-002  0.38966213000000000        0.0000000000000000     
  0.59114111999999996       0.49294315000000000        0.0000000000000000     
  0.63337980999999999       0.64485914000000000        0.0000000000000000     
  0.50012352000000004       0.29676539000000002        0.0000000000000000     
  0.82552601000000003       0.92753492000000004        0.0000000000000000     
  0.92774772999999999       0.82498556999999995        0.0000000000000000     
   7.1970870000000006E-002  0.17510291000000000        0.0000000000000000     
  0.17422821999999999        7.2635640000000001E-002   0.0000000000000000     
  0.82510813000000005        7.2134840000000006E-002   0.0000000000000000     
  0.92754665000000003       0.17446275999999999        0.0000000000000000     
  0.17501022999999999       0.92789951999999998        0.0000000000000000     
   7.2464680000000004E-002  0.82554053000000005        0.0000000000000000     
  0.30731587999999999       0.50885354999999999        0.0000000000000000     
  0.59033407999999998       0.22171178999999999        0.0000000000000000     
  0.40109191999999999       0.78725542000000004        0.0000000000000000     
  0.35420917000000002       0.63754104000000000        0.0000000000000000     
  0.15983976999999999       0.56665573000000002        0.0000000000000000     
  0.84108459999999996       0.56757886999999996        0.0000000000000000     
  0.83902096000000004       0.43344338999999998        0.0000000000000000     
  0.43230028999999998       0.16004268999999999        0.0000000000000000     
  0.57536027999999995       0.83041363999999995        0.0000000000000000     
  0.15771898000000001       0.42747892999999998        0.0000000000000000     
  0.34021692999999997       0.34221559000000001        0.0000000000000000     
  0.56002271999999997       0.57501117999999996        0.0000000000000000     
  0.65344329000000001       0.78147597999999996        0.0000000000000000     
   0.0000000000000000        0.0000000000000000        0.0000000000000000     
   1.0000000000000000        0.0000000000000000        0.0000000000000000     
   1.0000000000000000        1.0000000000000000        0.0000000000000000     
   0.0000000000000000        1.0000000000000000        0.0000000000000000     
  0.11111111000000000        0.0000000000000000        0.0000000000000000     
  0.22222222000000000        0.0000000000000000        0.0000000000000000     
  0.33333332999999998        0.0000000000000000        0.0000000000000000     
  0.44444444000000000        0.0000000000000000        0.0000000000000000     
  0.55555555999999995        0.0000000000000000        0.0000000000000000     
  0.66666667000000002        0.0000000000000000        0.0000000000000000     
  0.77777777999999997        0.0000000000000000        0.0000000000000000     
  0.88888889000000004        0.0000000000000000        0.0000000000000000     
   1.0000000000000000       0.11111111000000000        0.0000000000000000     
   1.0000000000000000       0.22222222000000000        0.0000000000000000     
   1.0000000000000000       0.33333332999999998        0.0000000000000000     
   1.0000000000000000       0.44444444000000000        0.0000000000000000     
   1.0000000000000000       0.55555555999999995        0.0000000000000000     
   1.0000000000000000       0.66666667000000002        0.0000000000000000     
   1.0000000000000000       0.77777777999999997        0.0000000000000000     
   1.0000000000000000       0.88888889000000004        0.0000000000000000     
  0.88888889000000004        1.0000000000000000        0.0000000000000000     
  0.77777777999999997        1.0000000000000000        0.0000000000000000     
  0.66666667000000002        1.0000000000000000        0.0000000000000000     
  0.55555555999999995        1.0000000000000000        0.0000000000000000     
  0.44444444000000000        1.0000000000000000        0.0000000000000000     
  0.33333332999999998        1.0000000000000000        0.0000000000000000     
  0.22222222000000000        1.0000000000000000        0.0000000000000000     
  0.11111111000000000        1.0000000000000000        0.0000000000000000     
   0.0000000000000000       0.11111111000000000        0.0000000000000000     
   0.0000000000000000       0.22222222000000000        0.0000000000000000     
[...]
 CELL_DATA         354
 SCALARS U float
 LOOKUP_TABLE default
    0.43428400065531927885E-05
    0.41307334604848942872E-02
    0.27625820617239888610E-04
    0.11323918239627079392E-03
    0.55627515978692878792E-05
    0.36185763681294464984E-03
    0.22248496373494493564E-02
    0.65038022984614883137E-03
    0.27548266220413773243E-02
    0.25022560513200732026E-02
    0.24021452183329880352E-02
    0.25773962023878799199E-02
    0.32195423750540253134E-02
    0.31880627561585604332E-02
    0.33152413578039570570E-02
    0.29217843342978925061E-02
    0.22172838157377286819E-02
    0.11458104362473062188E-02
    0.36092562158810416982E-02
    0.13038246204956486542E-02
    0.35988782612283326014E-02
    0.31375877567826394345E-02
    0.25324819958999168421E-02
    0.16667750077523242874E-02
    0.20875144668459490009E-02
    0.12373239832394605786E-02
    0.24846545741340139712E-02
    0.18867447877688734489E-02
    0.21462576196890716974E-02
    0.95085514965215949586E-03
    0.69096665063091504457E-05
    0.10487904730033384954E-04
    0.76103225187168985685E-05
    0.61917982801680685530E-05
    0.11638397526889650513E-04
    0.97923586243910838836E-05
    0.14671527705559477193E-04
    0.96282233181354359941E-05
    0.42224354147764771577E-05
    0.46264287835655090421E-05
    0.33000307284639028301E-05
    0.28861757825135997238E-05
    0.31784384036083881927E-05
    0.28517546236917495640E-05
    0.34624314367051237836E-05
    0.19456389870354721799E-05
    0.48320945501548060713E-05
    0.27106993732462522726E-05
    0.14540555416930971597E-04
    0.36240427210165130495E-04
    0.82212266903420959776E-04
    0.50147856754711141116E-04
    0.40113885573067573583E-05
    0.12638652841948154004E-05
    0.47133104400023640806E-05
    0.12074566117430851985E-05
    0.47150876717425504068E-05
    0.33358557910295491077E-05
    0.45057232174632573063E-05
    0.33290872609511684226E-05
    0.45483293757323443429E-05
    0.34778736715443635930E-05
    0.44008706042281484970E-05
    0.37701950693576801275E-05
    0.90715468588843428720E-05
    0.10770841782437974918E-04
    0.30373175602020489102E-04
    0.24266225375111661071E-04
    0.21948818184513688330E-02
    0.36450960233046668033E-02
    0.28525130472687367650E-02
    0.33272078389763167991E-02
    0.35049386664002864927E-02
    0.33525307603788911948E-02
    0.26978607400808679584E-02
    0.20295646628211211002E-02
    0.25823088219993329227E-02
    0.43412583773020808203E-02
    0.23460873226224796852E-02
    0.18316026813776013597E-02
    0.13655624044177341794E-02
    0.11822588993548306755E-02
    0.36642786525297316169E-02
    0.66989407507798308990E-03
    0.21785274992168861263E-02
    0.29305903018407141597E-02
    0.48406011624944238810E-03
    0.40003372936533209206E-02
    0.25521277128239673419E-02
    0.45095698321091295946E-02
    0.27267514854887459075E-02
    0.15762883374414876376E-02
    0.71655598406383585672E-03
    0.26685791013393152737E-04
    0.21933882885312274612E-04
    0.79902502485897409254E-04
    0.22010472245817874412E-02
    0.22359197822785898367E-02
    0.31377762659812419126E-02
    0.26587448479046863446E-02
    0.36505331535106994544E-02
    0.23561470163830857023E-02
    0.33518568636109217704E-02
    0.41215251554563665445E-02
    0.31117465323388035503E-02
    0.41722620296870665396E-02
    0.49444288289128539987E-02
    0.27286010242403820406E-02
    0.21543528099656995486E-02
    0.20022652687932593861E-02
    0.20762256532672670063E-04
    0.10870423830369130378E-02
    0.95611343437576492947E-03
    0.57621007403630634253E-03
    0.21065933064506737853E-02
    0.19499572655422435681E-02
    0.23377817053321951410E-02
    0.11422823994327990088E-02
    0.28759231727432475051E-02
    0.74142061952303423174E-03
    0.18429268248481337454E-02
    0.93420545649279862396E-05
    0.13538628831097934308E-04
    0.13371303461582103857E-04
    0.19139054754935371964E-04
    0.23441968182834151450E-04
    0.10172403050292854924E-04
    0.11937500703549440797E-04
    0.16701002686636985933E-02
    0.16968524479291620735E-02
    0.12132304025133054930E-02
    0.26545782447482562695E-02
    0.26947782734622538134E-02
    0.21229275610921322407E-04
    0.16652057105844533715E-02
    0.27186259164152281123E-02
    0.37941224110422896477E-02
    0.21060380966481085339E-02
    0.33765370376817212261E-02
    0.29476241495834014719E-02
    0.26704775465621437280E-02
    0.22824416324802969391E-02
    0.74722838159717423100E-05
    0.68910858588991035799E-05
    0.73434135783914035347E-05
    0.11579805299649935501E-04
    0.80777594293158205537E-05
    0.65202957393086596150E-05
    0.67375092390804338548E-05
    0.28068088891087467421E-02
    0.31257041227662073386E-02
    0.37935931523584449226E-02
    0.31892502686328302007E-02
    0.40272762934257721676E-02
    0.36961563230875254041E-02
    0.26389500935365215600E-02
    0.36218663229161253241E-02
    0.31321063006011450568E-02
    0.26193785498812931743E-02
    0.38903911151815713000E-02
    0.23761710917545603855E-02
    0.27862314206810075146E-02
    0.20879110106359795307E-02
    0.13900194009100912997E-02
    0.23961365161801547081E-02
    0.10944568694221155583E-04
    0.20403307022665538584E-04
    0.10412667010154338541E-04
    0.17921703516624184848E-04
    0.24713100965100163954E-04
    0.28890794779647187111E-02
    0.36152513584031412477E-02
    0.29846581404716606215E-02
    0.40827702150347073770E-02
    0.38126211968858491827E-02
    0.15098882291088933441E-02
    0.12591482511213150132E-02
    0.11934621358013247812E-02
    0.17094158740733260242E-02
    0.89408415295180526054E-03
    0.32798624494182041823E-02
    0.29516705801116362336E-02
    0.35246374671166992229E-02
    0.24156441577703803049E-02
    0.32151189912335929183E-02
    0.81416325549645723360E-03
    0.21597693265063434148E-02
    0.68895279024296833884E-03
    0.69156745526316649487E-03
    0.17720316060427171792E-02
    0.34966389627437586760E-02
    0.30794629313079429148E-02
    0.36904157458745017600E-02
    0.30589801357479508466E-02
    0.29305362063692095599E-02
    0.13246254151444034088E-04
    0.46512012928622017646E-04
    0.17407987518656895925E-04
    0.12770574042987709696E-04
    0.20782652020051081275E-04
    0.53767480195298939994E-05
    0.61478271786336178556E-05
    0.72397339638289123385E-05
    0.39507160176697067122E-05
    0.76406150821858200001E-05
    0.97676777769377300803E-03
    0.39400344046634202047E-02
    0.29012373556176261451E-02
    0.22776968125169765045E-02
    0.38992886136921516699E-02
    0.19766645201979363144E-02
    0.17289964856991996145E-02
    0.22533179423937297996E-02
    0.19582531465754853331E-02
    0.27230397083151153433E-02
    0.38500288706907036945E-02
    0.25626821991512121687E-02
    0.25750342386258052302E-02
    0.42508202632638427895E-02
    0.66126629979854512770E-03
    0.16093527512417844750E-03
    0.75748668221116075006E-04
    0.18550898196090835970E-02
    0.10334923926121827864E-02
    0.17864439907044394641E-02
    0.45651632790366420368E-05
    0.57418084127356958053E-05
    0.83665821353898068538E-05
    0.13250500705962885809E-04
    0.79752567412477912270E-05
    0.80163866138879146293E-05
    0.48466745286118451943E-03
    0.14554132482434741901E-02
    0.37486543650154802165E-02
    0.20888417572918387480E-02
    0.32352615251529117345E-02
    0.18058583581294410624E-02
    0.38217252847431099419E-02
    0.31834728133482777419E-02
    0.40286585947122951004E-02
    0.36891446196684477346E-02
    0.35360186080585199152E-02
    0.80955141118258368369E-03
    0.32733486421685436358E-03
    0.32132379726288310719E-02
    0.26852587096855237182E-02
    0.15883799889835821821E-04
    0.58302443900440270556E-05
    0.68276567175529933839E-05
    0.23608513503383605006E-02
    0.87782176750774332415E-03
    0.69988394481191806775E-05
    0.22386405582599799846E-02
    0.30781929581034342576E-02
    0.11234599525316701224E-02
    0.26356425422119564295E-02
    0.22298843452097424217E-02
    0.23935048595999514065E-02
    0.37201771444200006653E-03
    0.44188293408764300419E-03
    0.12202961406123332937E-04
    0.33821462205732679210E-02
    0.35698705065908943948E-02
    0.27033678327382901392E-02
    0.12486628036704573513E-04
    0.76783040401371846858E-05
    0.83472673577784653806E-05
    0.84872862387827764836E-05
    0.52329666073504304608E-05
    0.69912928319056275335E-05
    0.22572252810167279732E-02
    0.30390510313814530705E-02
    0.36097778433262592973E-02
    0.42020997588130470576E-02
    0.14034800050179245794E-02
    0.24873597339248520663E-02
    0.21831251263361149163E-02
    0.22707505106137992716E-02
    0.45603448096288099064E-04
    0.27366583131368479344E-02
    0.23649365228991612448E-02
    0.26798534247043215685E-03
    0.23742182425492397956E-02
    0.42249519420552430690E-02
    0.27892499292833548494E-02
    0.34421115899531530384E-02
    0.27100320843867734162E-02
    0.52503987428035120175E-05
    0.12054941669223818296E-02
    0.11525701843739498352E-04
    0.12646726326429348687E-04
    0.13680575136125843177E-02
    0.31093219423965418394E-02
    0.71901527469777865660E-05
    0.74718705445335149962E-05
    0.18896460493929047308E-02
    0.78898546218571252199E-03
    0.58730724440901789247E-03
    0.34823229336632382375E-02
    0.13175132807805297483E-04
    0.13150534023932912691E-02
    0.52904426984888165003E-02
    0.10139499161807640724E-04
    0.32968715967225344955E-02
    0.16404657450593978802E-02
    0.33715895055185154255E-02
    0.10125780203315284337E-02
    0.30542387435484744454E-02
    0.12914775205848125778E-04
    0.13781052146333018540E-04
    0.31349869688234860421E-02
    0.19645905984613026493E-02
    0.32612535365824555332E-02
    0.83246016339425920466E-03
    0.32960155319723262284E-02
    0.27825228687037603485E-02
    0.30271251788448238010E-02
    0.24014433344724138626E-03
    0.30008202827364737771E-05
    0.73124252210487143226E-06
    0.30787166521188866729E-02
    0.10284161249885940062E-02
    0.33469515214372569801E-04
    0.36668517966723238922E-04
    0.16233065617900465901E-03
    0.10707214608406046463E-03
    0.35459715785483462503E-03
    0.16832367541604251453E-02
    0.14454339953556231014E-02
    0.35033165258812120832E-02
    0.42185562684105264858E-02
    0.23708714972308767878E-02
    0.46788147479747863814E-03
    0.28529355846008985255E-03
    0.51237324856108067573E-03
    0.14797974538144508428E-03
    0.90444530264507125381E-03
    0.55159644182638953316E-06
    0.12320754365766797965E-05
    0.68017022049339279197E-05
    0.88380139450004794173E-05
    0.18161483447988239564E-05
    0.47965022902776501921E-06
    0.84907871694765551611E-06
    0.23572355878820625073E-05
    0.17755932369620029503E-04
    0.75306661585768780703E-04
    0.14944424516757677332E-06
    0.43386337429952693592E-07
    0.35914180361618248277E-07
    0.11380575044311342773E-06
    0.44564694814382393470E-06
    0.64939524275193628129E-05
    0.35870959917278403086E-04
