# vtk DataFile Version 3.0
LAPLACIEN  2D
ASCII
DATASET UNSTRUCTURED_GRID
 POINTS         391  float
  0.50371505999999999       0.50367786999999997        0.0000000000000000     
  0.29013556000000001       0.29014535000000002        0.0000000000000000     
  0.70165584999999997       0.71206597999999999        0.0000000000000000     
  0.70304188999999995       0.30176619999999998        0.0000000000000000     
  0.30920671999999999       0.71149227999999998        0.0000000000000000     
  0.79044983999999996       0.49884783999999999        0.0000000000000000     
  0.49102621000000002       0.20968644000000000        0.0000000000000000     
  0.49912957000000002       0.77208717000000004        0.0000000000000000     
  0.21724072999999999       0.48989389000000000        0.0000000000000000     
  0.83255933999999998       0.83046598000000005        0.0000000000000000     
  0.16646774000000000       0.17015694000000001        0.0000000000000000     
  0.83054514999999995       0.16736480000000001        0.0000000000000000     
  0.16953130999999999       0.83265739000000005        0.0000000000000000     
  0.42166445000000002       0.36345201999999999        0.0000000000000000     
  0.64462200999999997       0.56347807999999999        0.0000000000000000     
  0.35324633999999999       0.56311191000000005        0.0000000000000000     
  0.65456411000000003       0.84856860999999995        0.0000000000000000     
  0.35141477999999998       0.15563974000000000        0.0000000000000000     
  0.15290967000000000       0.35206625000000003        0.0000000000000000     
  0.82942241000000005       0.34936866000000000        0.0000000000000000     
  0.84390527000000004       0.64441694999999999        0.0000000000000000     
  0.63699174999999997       0.14284276000000001        0.0000000000000000     
  0.15620682999999999       0.64648446999999998        0.0000000000000000     
  0.36426062999999997       0.85756310999999996        0.0000000000000000     
  0.63489340999999999       0.40519052000000000        0.0000000000000000     
  0.52518872999999999       0.65957078000000002        0.0000000000000000     
  0.32158959999999998       0.42298103999999997        0.0000000000000000     
  0.58861710000000000       0.31711036999999997        0.0000000000000000     
  0.42078418000000001       0.69497151999999995        0.0000000000000000     
  0.48608786999999998       0.89334152000000000        0.0000000000000000     
   9.7084320000000002E-002  0.50000000000000000        0.0000000000000000     
  0.90291568000000000       0.50000000000000000        0.0000000000000000     
  0.51392453000000005       0.10668648999999999        0.0000000000000000     
  0.59792566999999996       0.73122754000000001        0.0000000000000000     
  0.74510058999999995       0.41124730999999998        0.0000000000000000     
  0.73212551999999997       0.90191560000000004        0.0000000000000000     
   9.7784830000000003E-002  0.26957329000000002        0.0000000000000000     
  0.26711221000000002        9.8671499999999995E-002   0.0000000000000000     
  0.90191560000000004       0.26787448000000003        0.0000000000000000     
  0.90118569000000004       0.73039821000000005        0.0000000000000000     
  0.73122947000000005        9.8017859999999998E-002   0.0000000000000000     
   9.8084400000000002E-002  0.73212551999999997        0.0000000000000000     
  0.26957329000000002       0.90221516999999996        0.0000000000000000     
  0.39283522999999998       0.25360379000000000        0.0000000000000000     
  0.74480864000000002       0.60495284999999999        0.0000000000000000     
  0.25505132000000003       0.60593640999999998        0.0000000000000000     
  0.52159297999999998       0.40671636000000000        0.0000000000000000     
  0.40768852000000000       0.47699891000000000        0.0000000000000000     
   9.1467049999999994E-002   9.1876959999999994E-002   0.0000000000000000     
  0.90842484999999995       0.90819225000000003        0.0000000000000000     
  0.90820104999999995        9.1566729999999999E-002   0.0000000000000000     
   9.1807449999999999E-002  0.90843574000000005        0.0000000000000000     
  0.27098960000000000       0.20527094000000001        0.0000000000000000     
  0.73457293999999995       0.79835387000000002        0.0000000000000000     
  0.79817773000000003       0.25713470999999999        0.0000000000000000     
  0.20747797000000001       0.72863946000000002        0.0000000000000000     
  0.20175195000000001       0.27583914999999998        0.0000000000000000     
  0.79603889000000005       0.72159035000000005        0.0000000000000000     
  0.71761666000000002       0.19748431999999999        0.0000000000000000     
  0.28462607000000001       0.80251899999999998        0.0000000000000000     
  0.69134598999999997       0.49261972999999998        0.0000000000000000     
  0.44720578999999999       0.58582935999999997        0.0000000000000000     
  0.24242269999999999       0.37228174000000003        0.0000000000000000     
  0.38265623999999998       0.93072131999999996        0.0000000000000000     
  0.60971754000000000       0.91988369000000003        0.0000000000000000     
   7.9163609999999995E-002  0.60979116000000000        0.0000000000000000     
  0.92010649000000000       0.61081183999999999        0.0000000000000000     
  0.61954008999999999        7.1530830000000004E-002   0.0000000000000000     
  0.91882012999999996       0.38917363999999999        0.0000000000000000     
  0.39086346000000000        8.0652249999999995E-002   0.0000000000000000     
   7.9183480000000001E-002  0.38966213000000000        0.0000000000000000     
  0.59114111999999996       0.49294315000000000        0.0000000000000000     
  0.63337980999999999       0.64485914000000000        0.0000000000000000     
  0.50012352000000004       0.29676539000000002        0.0000000000000000     
  0.82552601000000003       0.92753492000000004        0.0000000000000000     
  0.92774772999999999       0.82498556999999995        0.0000000000000000     
   7.1970870000000006E-002  0.17510291000000000        0.0000000000000000     
  0.17422821999999999        7.2635640000000001E-002   0.0000000000000000     
  0.82510813000000005        7.2134840000000006E-002   0.0000000000000000     
  0.92754665000000003       0.17446275999999999        0.0000000000000000     
  0.17501022999999999       0.92789951999999998        0.0000000000000000     
   7.2464680000000004E-002  0.82554053000000005        0.0000000000000000     
  0.30731587999999999       0.50885354999999999        0.0000000000000000     
  0.59033407999999998       0.22171178999999999        0.0000000000000000     
  0.40109191999999999       0.78725542000000004        0.0000000000000000     
  0.35420917000000002       0.63754104000000000        0.0000000000000000     
  0.15983976999999999       0.56665573000000002        0.0000000000000000     
  0.84108459999999996       0.56757886999999996        0.0000000000000000     
  0.83902096000000004       0.43344338999999998        0.0000000000000000     
  0.43230028999999998       0.16004268999999999        0.0000000000000000     
  0.57536027999999995       0.83041363999999995        0.0000000000000000     
  0.15771898000000001       0.42747892999999998        0.0000000000000000     
  0.34021692999999997       0.34221559000000001        0.0000000000000000     
  0.56002271999999997       0.57501117999999996        0.0000000000000000     
  0.65344329000000001       0.78147597999999996        0.0000000000000000     
   0.0000000000000000        0.0000000000000000        0.0000000000000000     
   1.0000000000000000        0.0000000000000000        0.0000000000000000     
   1.0000000000000000        1.0000000000000000        0.0000000000000000     
   0.0000000000000000        1.0000000000000000        0.0000000000000000     
  0.11111111000000000        0.0000000000000000        0.0000000000000000     
  0.22222222000000000        0.0000000000000000        0.0000000000000000     
  0.33333332999999998        0.0000000000000000        0.0000000000000000     
  0.44444444000000000        0.0000000000000000        0.0000000000000000     
  0.55555555999999995        0.0000000000000000        0.0000000000000000     
  0.66666667000000002        0.0000000000000000        0.0000000000000000     
  0.77777777999999997        0.0000000000000000        0.0000000000000000     
  0.88888889000000004        0.0000000000000000        0.0000000000000000     
   1.0000000000000000       0.11111111000000000        0.0000000000000000     
   1.0000000000000000       0.22222222000000000        0.0000000000000000     
   1.0000000000000000       0.33333332999999998        0.0000000000000000     
   1.0000000000000000       0.44444444000000000        0.0000000000000000     
   1.0000000000000000       0.55555555999999995        0.0000000000000000     
   1.0000000000000000       0.66666667000000002        0.0000000000000000     
   1.0000000000000000       0.77777777999999997        0.0000000000000000     
   1.0000000000000000       0.88888889000000004        0.0000000000000000     
  0.88888889000000004        1.0000000000000000        0.0000000000000000     
  0.77777777999999997        1.0000000000000000        0.0000000000000000     
  0.66666667000000002        1.0000000000000000        0.0000000000000000     
  0.55555555999999995        1.0000000000000000        0.0000000000000000     
  0.44444444000000000        1.0000000000000000        0.0000000000000000     
  0.33333332999999998        1.0000000000000000        0.0000000000000000     
  0.22222222000000000        1.0000000000000000        0.0000000000000000     
  0.11111111000000000        1.0000000000000000        0.0000000000000000     
   0.0000000000000000       0.11111111000000000        0.0000000000000000     
   0.0000000000000000       0.22222222000000000        0.0000000000000000     
[...]
 CELL_DATA         354
 SCALARS U float
 LOOKUP_TABLE default
    0.93725513939938911306E-02
    0.52010564634512951310E-01
    0.66893368501597882947E-01
    0.23820063653896322853E+00
    0.11470916092231466660E-01
    0.24762861692495211074E-01
    0.13356114450164982554E+00
    0.24544770986563792942E-01
    0.20721690862776045994E+00
    0.30186749199603124527E+00
    0.49432616695259257167E+00
    0.47354774396396154268E+00
    0.56645404003067367782E+00
    0.61087025480117729259E+00
    0.58362424800608825315E+00
    0.58076219691753672159E+00
    0.39279045625102937400E+00
    0.23760052318041169350E+00
    0.66764149573918865621E-01
    0.15365445593741144936E+00
    0.51966440966420182623E-01
    0.47596725026001006353E-01
    0.14144571231730135308E+00
    0.64261328667896869260E-01
    0.14169818673481485161E+00
    0.11123211641478403244E+00
    0.79323246675286548935E-01
    0.99283037001820936829E-01
    0.74347451239040435178E-01
    0.22891217781896861655E-01
    0.14509494708432248145E-01
    0.22824966088482587928E-01
    0.15641350082820786732E-01
    0.11788436091645194265E-01
    0.21729291063106333931E-01
    0.18935758973291590135E-01
    0.39567195718764706924E-01
    0.21966071587716826802E-01
    0.83527484096548691717E-02
    0.93103035542518378098E-02
    0.64225783641929049678E-02
    0.57084677429427993500E-02
    0.62189489231584717255E-02
    0.56443395248155147845E-02
    0.67792095429577729424E-02
    0.36740422284121400896E-02
    0.95499186564530075261E-02
    0.55475330280097320118E-02
    0.33458323964873804002E-01
    0.81597132415896611590E-01
    0.18119113522391783189E+00
    0.11059857975525702600E+00
    0.88139461612771405341E-02
    0.21404140149228665334E-02
    0.94262320742832059889E-02
    0.20608813072325220597E-02
    0.94112186143954102563E-02
    0.65520292200525109480E-02
    0.10657123399884815482E-01
    0.65623217155487681071E-02
    0.10712998486753281396E-01
    0.71357460961104712469E-02
    0.85916617431954639406E-02
    0.76420602384956425046E-02
    0.19256194348142338657E-01
    0.26182932831428709641E-01
    0.59219554093866325073E-01
    0.55799564890828594332E-01
    0.66437115205901031700E+00
    0.85422588566396129295E+00
    0.87369148386084238833E+00
    0.78408619868822104770E+00
    0.87598719430055882462E+00
    0.81743127863795783661E+00
    0.85107099963993815273E+00
    0.82978283577797706805E+00
    0.84000186295323364671E+00
    0.86211139567786643223E+00
    0.49472697471027549110E+00
    0.70105717384560206629E+00
    0.15191887611791066170E+00
    0.34766821018809668242E+00
    0.78018607595391453735E+00
    0.20562331445060680335E+00
    0.62979476586990701392E+00
    0.10678340381427110783E+00
    0.39260303714334254810E-01
    0.40600789625960392870E+00
    0.52635548812132959551E+00
    0.25724372480048024459E+00
    0.62152947817588288792E-01
    0.25846600120203788720E+00
    0.32226360868731318554E+00
    0.79275453128995546082E-01
    0.66139219998855497407E-01
    0.66770174796287329322E-01
    0.47075260856562595180E+00
    0.74279497249471027054E+00
    0.84439133045349923368E+00
    0.85651341893277743722E+00
    0.86128355291138336547E+00
    0.81813551980070930991E+00
    0.85792796019482941983E+00
    0.42312913334165441759E+00
    0.37737338738754772072E+00
    0.12590264287406044419E+00
    0.13976795599554558969E+00
    0.55148933621095286295E+00
    0.53536404792777103623E+00
    0.39461533081857436134E+00
    0.69142020050516159180E-01
    0.25571171001155312830E+00
    0.92775388287066232196E-01
    0.88569550424585266613E-01
    0.81270076122289758302E+00
    0.16790871159495113218E+00
    0.46182936176794919803E+00
    0.72263961378247199008E+00
    0.76447105234443024635E+00
    0.18651799457660830917E+00
    0.38223985076257416260E+00
    0.18770371909338154359E-01
    0.27302734647507473364E-01
    0.26804222684507703067E-01
    0.45303027915284621585E-01
    0.68030321414381283995E-01
    0.20819718005566256736E-01
    0.23557285533303190528E-01
    0.63070370916046086807E-01
    0.38573421259948148521E+00
    0.60507389441511010009E-01
    0.56933358728838168172E+00
    0.34721328321547484386E+00
    0.53828166613027680909E-01
    0.91854215326261312580E-01
    0.73322538025395833650E+00
    0.84869409525731775989E+00
    0.43040457335026011121E+00
    0.84744351402472584134E+00
    0.79946853489875124854E+00
    0.72919421269696527155E+00
    0.43310597035087905482E+00
    0.14333546482206863809E-01
    0.12850871230598002320E-01
    0.13573244722192751716E-01
    0.23921244691616515288E-01
    0.15291787665949380104E-01
    0.12062958251446388377E-01
    0.12565933909773332675E-01
    0.80677643463911619115E+00
    0.63741153576914899581E+00
    0.30345282253413130569E+00
    0.65977017167141005505E+00
    0.25270501147081803062E+00
    0.80316271411844075701E+00
    0.86605426375274841000E+00
    0.86812254016823009461E+00
    0.85102040405104817378E+00
    0.88940240434997308583E+00
    0.87240828668702818938E+00
    0.78330381941698934423E+00
    0.83328348963518417136E+00
    0.86359785627767116090E+00
    0.84920788508749633916E+00
    0.85809041294745680428E+00
    0.24852940795778214605E-01
    0.51288817500754160794E-01
    0.23916682578946291821E-01
    0.43859096525446068793E-01
    0.55254457561098084539E-01
    0.80446348318452620685E+00
    0.83492069086857823024E+00
    0.87390269345867799267E+00
    0.83914142043543338279E+00
    0.86887671029804269818E+00
    0.88698417771984269797E-01
    0.41685984137340093003E+00
    0.42344754674802359551E+00
    0.67529698082360006817E-01
    0.13079439518927468700E+00
    0.78492494298260595542E+00
    0.73726818479209810242E+00
    0.85116997825442219927E+00
    0.70467950287717084912E+00
    0.86347347383839956336E+00
    0.11914695677039008337E+00
    0.52895309783544341986E+00
    0.19995577217951712723E+00
    0.14780794358014173739E+00
    0.47733742165260101276E+00
    0.72441613470542176589E+00
    0.77564333179920752492E+00
    0.52423220203142439910E+00
    0.85855829518057680261E+00
    0.35482003786592664074E+00
    0.29334136184634727884E-01
    0.13391216688964074910E+00
    0.38970767652841367679E-01
    0.28645314272816895657E-01
    0.46479926852808516047E-01
    0.10345983358230132626E-01
    0.11453610553862325280E-01
    0.13734796331314105128E-01
    0.73972176914920712704E-02
    0.14063600605340120797E-01
    0.55502488128495272579E-01
    0.42332350855102640619E+00
    0.13150650735932137292E+00
    0.59190621141681254436E+00
    0.42737141630021530103E+00
    0.74273895249758381532E+00
    0.61886704460200014921E+00
    0.86603444571958465570E+00
    0.87474097826872310169E+00
    0.87548098210228353366E+00
    0.85021880915880854168E+00
    0.83740244351586912153E+00
    0.86736796244264691147E+00
    0.83946159452034163628E+00
    0.62296528373787719846E-01
    0.11048864146331034350E-01
    0.22898436708063126671E-01
    0.78361008528481757018E+00
    0.15412216682301665971E+00
    0.61341104277563018865E+00
    0.89173919675337876695E-02
    0.11424667206623582288E-01
    0.15676498535799322093E-01
    0.31348973896248202853E-01
    0.17764445738926958052E-01
    0.17191537466425165642E-01
    0.35613913336491880013E-01
    0.78467631296638473692E-01
    0.20933264079073288233E+00
    0.32587520749259757391E+00
    0.57054508319098096170E+00
    0.66171509283643581423E+00
    0.85327689056010425084E+00
    0.78509427523394337278E+00
    0.32801378707482553576E+00
    0.73842486678921259724E+00
    0.77028986903643914541E+00
    0.12434500712721707760E+00
    0.19972928825983760071E+00
    0.78144193308181830737E+00
    0.84594605694910207649E+00
    0.39172118055127304326E-01
    0.11564872083527577562E-01
    0.13597700967855393811E-01
    0.18926736583338238384E+00
    0.15958470341894015476E-01
    0.11445348235040415236E-01
    0.75324998103185425435E+00
    0.60168249081063618355E+00
    0.17101305707701408565E+00
    0.79762049039219728996E+00
    0.41779656043074853145E+00
    0.36695534112507943725E+00
    0.71373656262401108386E-01
    0.37321726361228386992E-01
    0.25062883937471264889E-01
    0.75466407574871952058E+00
    0.86657245318994258199E+00
    0.64052203994446987867E+00
    0.26040991882355552650E-01
    0.15379605449972685166E-01
    0.16118191650375743307E-01
    0.16145522577885672300E-01
    0.98960336214380158898E-02
    0.13006934904390267047E-01
    0.81650635593802445289E+00
    0.25586299437756460096E+00
    0.69511969990996880231E+00
    0.82365310793500157160E+00
    0.45258044789110940531E+00
    0.84878380261272301510E+00
    0.87340666870818206569E+00
    0.77347028821881680383E+00
    0.13513324169500187666E+00
    0.73721886557331195444E+00
    0.68828428062942692556E+00
    0.15853049755568840440E+00
    0.56008929424391873386E+00
    0.42975480715178315805E+00
    0.73425325539121427676E-01
    0.85714096614910573191E+00
    0.84007295566571349443E+00
    0.10753325261131598325E-01
    0.30724329487260906846E-01
    0.24188192967475145856E-01
    0.24234266420910057643E-01
    0.36876595617595725463E+00
    0.11795112781806070534E+00
    0.13695099299283643515E-01
    0.14155749718497591741E-01
    0.72689500172169985159E+00
    0.10268675981976563283E+00
    0.69648054972246908889E-01
    0.63532186655085776117E+00
    0.27101480314315098963E-01
    0.74325509242532339371E+00
    0.19009313498926799779E+00
    0.18976727238203230236E-01
    0.78502521224855414950E+00
    0.84480366564554765230E+00
    0.88041259360713486348E+00
    0.40961038930554399817E+00
    0.83145545317310520783E+00
    0.30775907655315699191E-01
    0.32452623784232595416E-01
    0.30743066520357459348E+00
    0.67998290588915988319E+00
    0.83647284008132372080E+00
    0.57958017691060730037E-01
    0.84769583620148680758E+00
    0.89002497438880046055E+00
    0.33900755354494396809E-01
    0.61968792686929952129E-01
    0.51248130060417744838E-02
    0.11394945298397998659E-02
    0.67192751204350692831E-02
    0.99858774997692105989E-03
    0.74204687452192552577E-01
    0.91463970562069757397E-01
    0.35308129315676062276E+00
    0.22347655905794369668E+00
    0.79311846250031681205E-02
    0.16388813140912911887E-01
    0.12033007482177132674E+00
    0.26002649641665270819E+00
    0.28520410496243353560E+00
    0.20875303145216561607E+00
    0.39162619948968788175E-01
    0.11195585136331274480E-02
    0.11396673214227664647E-02
    0.70681106560279002501E-03
    0.41996338164079159141E-03
    0.38721886188414526234E-03
    0.19724301222067029335E-02
    0.13536299248747381968E-01
    0.20564522424907021036E-01
    0.35784053581265858925E-02
    0.75403658334789627586E-03
    0.14887506836573527903E-02
    0.50002411940165865378E-02
    0.43227070186037372390E-01
    0.17113022921980194924E+00
    0.18231520417553436788E-03
    0.40511340437702373707E-04
    0.33430887172783638477E-04
    0.13261891573866296866E-03
    0.68012898047316034788E-03
    0.14833160897693299651E-01
    0.83067242791618145503E-01
