# vtk DataFile Version 3.0
LAPLACIEN  2D
ASCII
DATASET UNSTRUCTURED_GRID
 POINTS         391  float
  0.50371505999999999       0.50367786999999997        0.0000000000000000     
  0.29013556000000001       0.29014535000000002        0.0000000000000000     
  0.70165584999999997       0.71206597999999999        0.0000000000000000     
  0.70304188999999995       0.30176619999999998        0.0000000000000000     
  0.30920671999999999       0.71149227999999998        0.0000000000000000     
  0.79044983999999996       0.49884783999999999        0.0000000000000000     
  0.49102621000000002       0.20968644000000000        0.0000000000000000     
  0.49912957000000002       0.77208717000000004        0.0000000000000000     
  0.21724072999999999       0.48989389000000000        0.0000000000000000     
  0.83255933999999998       0.83046598000000005        0.0000000000000000     
  0.16646774000000000       0.17015694000000001        0.0000000000000000     
  0.83054514999999995       0.16736480000000001        0.0000000000000000     
  0.16953130999999999       0.83265739000000005        0.0000000000000000     
  0.42166445000000002       0.36345201999999999        0.0000000000000000     
  0.64462200999999997       0.56347807999999999        0.0000000000000000     
  0.35324633999999999       0.56311191000000005        0.0000000000000000     
  0.65456411000000003       0.84856860999999995        0.0000000000000000     
  0.35141477999999998       0.15563974000000000        0.0000000000000000     
  0.15290967000000000       0.35206625000000003        0.0000000000000000     
  0.82942241000000005       0.34936866000000000        0.0000000000000000     
  0.84390527000000004       0.64441694999999999        0.0000000000000000     
  0.63699174999999997       0.14284276000000001        0.0000000000000000     
  0.15620682999999999       0.64648446999999998        0.0000000000000000     
  0.36426062999999997       0.85756310999999996        0.0000000000000000     
  0.63489340999999999       0.40519052000000000        0.0000000000000000     
  0.52518872999999999       0.65957078000000002        0.0000000000000000     
  0.32158959999999998       0.42298103999999997        0.0000000000000000     
  0.58861710000000000       0.31711036999999997        0.0000000000000000     
  0.42078418000000001       0.69497151999999995        0.0000000000000000     
  0.48608786999999998       0.89334152000000000        0.0000000000000000     
   9.7084320000000002E-002  0.50000000000000000        0.0000000000000000     
  0.90291568000000000       0.50000000000000000        0.0000000000000000     
  0.51392453000000005       0.10668648999999999        0.0000000000000000     
  0.59792566999999996       0.73122754000000001        0.0000000000000000     
  0.74510058999999995       0.41124730999999998        0.0000000000000000     
  0.73212551999999997       0.90191560000000004        0.0000000000000000     
   9.7784830000000003E-002  0.26957329000000002        0.0000000000000000     
  0.26711221000000002        9.8671499999999995E-002   0.0000000000000000     
  0.90191560000000004       0.26787448000000003        0.0000000000000000     
  0.90118569000000004       0.73039821000000005        0.0000000000000000     
  0.73122947000000005        9.8017859999999998E-002   0.0000000000000000     
   9.8084400000000002E-002  0.73212551999999997        0.0000000000000000     
  0.26957329000000002       0.90221516999999996        0.0000000000000000     
  0.39283522999999998       0.25360379000000000        0.0000000000000000     
  0.74480864000000002       0.60495284999999999        0.0000000000000000     
  0.25505132000000003       0.60593640999999998        0.0000000000000000     
  0.52159297999999998       0.40671636000000000        0.0000000000000000     
  0.40768852000000000       0.47699891000000000        0.0000000000000000     
   9.1467049999999994E-002   9.1876959999999994E-002   0.0000000000000000     
  0.90842484999999995       0.90819225000000003        0.0000000000000000     
  0.90820104999999995        9.1566729999999999E-002   0.0000000000000000     
   9.1807449999999999E-002  0.90843574000000005        0.0000000000000000     
  0.27098960000000000       0.20527094000000001        0.0000000000000000     
  0.73457293999999995       0.79835387000000002        0.0000000000000000     
  0.79817773000000003       0.25713470999999999        0.0000000000000000     
  0.20747797000000001       0.72863946000000002        0.0000000000000000     
  0.20175195000000001       0.27583914999999998        0.0000000000000000     
  0.79603889000000005       0.72159035000000005        0.0000000000000000     
  0.71761666000000002       0.19748431999999999        0.0000000000000000     
  0.28462607000000001       0.80251899999999998        0.0000000000000000     
  0.69134598999999997       0.49261972999999998        0.0000000000000000     
  0.44720578999999999       0.58582935999999997        0.0000000000000000     
  0.24242269999999999       0.37228174000000003        0.0000000000000000     
  0.38265623999999998       0.93072131999999996        0.0000000000000000     
  0.60971754000000000       0.91988369000000003        0.0000000000000000     
   7.9163609999999995E-002  0.60979116000000000        0.0000000000000000     
  0.92010649000000000       0.61081183999999999        0.0000000000000000     
  0.61954008999999999        7.1530830000000004E-002   0.0000000000000000     
  0.91882012999999996       0.38917363999999999        0.0000000000000000     
  0.39086346000000000        8.0652249999999995E-002   0.0000000000000000     
   7.9183480000000001E-002  0.38966213000000000        0.0000000000000000     
  0.59114111999999996       0.49294315000000000        0.0000000000000000     
  0.63337980999999999       0.64485914000000000        0.0000000000000000     
  0.50012352000000004       0.29676539000000002        0.0000000000000000     
  0.82552601000000003       0.92753492000000004        0.0000000000000000     
  0.92774772999999999       0.82498556999999995        0.0000000000000000     
   7.1970870000000006E-002  0.17510291000000000        0.0000000000000000     
  0.17422821999999999        7.2635640000000001E-002   0.0000000000000000     
  0.82510813000000005        7.2134840000000006E-002   0.0000000000000000     
  0.92754665000000003       0.17446275999999999        0.0000000000000000     
  0.17501022999999999       0.92789951999999998        0.0000000000000000     
   7.2464680000000004E-002  0.82554053000000005        0.0000000000000000     
  0.30731587999999999       0.50885354999999999        0.0000000000000000     
  0.59033407999999998       0.22171178999999999        0.0000000000000000     
  0.40109191999999999       0.78725542000000004        0.0000000000000000     
  0.35420917000000002       0.63754104000000000        0.0000000000000000     
  0.15983976999999999       0.56665573000000002        0.0000000000000000     
  0.84108459999999996       0.56757886999999996        0.0000000000000000     
  0.83902096000000004       0.43344338999999998        0.0000000000000000     
  0.43230028999999998       0.16004268999999999        0.0000000000000000     
  0.57536027999999995       0.83041363999999995        0.0000000000000000     
  0.15771898000000001       0.42747892999999998        0.0000000000000000     
  0.34021692999999997       0.34221559000000001        0.0000000000000000     
  0.56002271999999997       0.57501117999999996        0.0000000000000000     
  0.65344329000000001       0.78147597999999996        0.0000000000000000     
   0.0000000000000000        0.0000000000000000        0.0000000000000000     
   1.0000000000000000        0.0000000000000000        0.0000000000000000     
   1.0000000000000000        1.0000000000000000        0.0000000000000000     
   0.0000000000000000        1.0000000000000000        0.0000000000000000     
  0.11111111000000000        0.0000000000000000        0.0000000000000000     
  0.22222222000000000        0.0000000000000000        0.0000000000000000     
  0.33333332999999998        0.0000000000000000        0.0000000000000000     
  0.44444444000000000        0.0000000000000000        0.0000000000000000     
  0.55555555999999995        0.0000000000000000        0.0000000000000000     
  0.66666667000000002        0.0000000000000000        0.0000000000000000     
  0.77777777999999997        0.0000000000000000        0.0000000000000000     
  0.88888889000000004        0.0000000000000000        0.0000000000000000     
   1.0000000000000000       0.11111111000000000        0.0000000000000000     
   1.0000000000000000       0.22222222000000000        0.0000000000000000     
   1.0000000000000000       0.33333332999999998        0.0000000000000000     
   1.0000000000000000       0.44444444000000000        0.0000000000000000     
   1.0000000000000000       0.55555555999999995        0.0000000000000000     
   1.0000000000000000       0.66666667000000002        0.0000000000000000     
   1.0000000000000000       0.77777777999999997        0.0000000000000000     
   1.0000000000000000       0.88888889000000004        0.0000000000000000     
  0.88888889000000004        1.0000000000000000        0.0000000000000000     
  0.77777777999999997        1.0000000000000000        0.0000000000000000     
  0.66666667000000002        1.0000000000000000        0.0000000000000000     
  0.55555555999999995        1.0000000000000000        0.0000000000000000     
  0.44444444000000000        1.0000000000000000        0.0000000000000000     
  0.33333332999999998        1.0000000000000000        0.0000000000000000     
  0.22222222000000000        1.0000000000000000        0.0000000000000000     
  0.11111111000000000        1.0000000000000000        0.0000000000000000     
   0.0000000000000000       0.11111111000000000        0.0000000000000000     
   0.0000000000000000       0.22222222000000000        0.0000000000000000     
[...]
 CELL_DATA         354
 SCALARS U float
 LOOKUP_TABLE default
    0.30131202257070488875E-05
    0.32174714390293367161E-02
    0.20837180277838430987E-04
    0.88359391247871271486E-04
    0.38601840086042363734E-05
    0.28945675153124419314E-03
    0.17185686660746140458E-02
    0.51554603038241454769E-03
    0.21548889314124304584E-02
    0.21535573253165011219E-02
    0.21410685916711438143E-02
    0.23058054137188401835E-02
    0.28717164549371364257E-02
    0.28365794362203420632E-02
    0.29773053654004581238E-02
    0.26071769773426721820E-02
    0.19433051352693514816E-02
    0.95769185020437889392E-03
    0.29700598564594065873E-02
    0.10626803652899015004E-02
    0.27713491840559304272E-02
    0.25562740756552341202E-02
    0.20995750137832672882E-02
    0.12925220711568375254E-02
    0.17207231959524931213E-02
    0.97646758315775294967E-03
    0.19483061963213410377E-02
    0.15896744709007028847E-02
    0.14945991416934344305E-02
    0.63870608020129737877E-03
    0.49794004441916238886E-05
    0.76288286578220096878E-05
    0.54602556935920702587E-05
    0.44637146529735588439E-05
    0.84529449418255888954E-05
    0.70760537363046106205E-05
    0.10637186895930228511E-04
    0.69401142203575158455E-05
    0.29504317284501353889E-05
    0.32739030098077190946E-05
    0.23185968401739073997E-05
    0.19868083360335415916E-05
    0.22089829873848254452E-05
    0.19637955545147591947E-05
    0.23981912368825805310E-05
    0.13290064080456930404E-05
    0.34515702336457415307E-05
    0.18601295023661076124E-05
    0.10819684770461892527E-04
    0.27656907773244558305E-04
    0.64047528976000472336E-04
    0.38639335551270086026E-04
    0.27934159417842787400E-05
    0.83639182185027255904E-06
    0.33199704465228388413E-05
    0.80018893858955608679E-06
    0.33217544245272788135E-05
    0.23174582866706560478E-05
    0.31686927312724725401E-05
    0.23127435627138147281E-05
    0.31951561655473518867E-05
    0.24358856190194740016E-05
    0.31521515879985513709E-05
    0.26395622031940847923E-05
    0.65416753554747628622E-05
    0.77435794117586643560E-05
    0.22720221725263996129E-04
    0.18326474705939569429E-04
    0.18948753699659403368E-02
    0.32433642820200924914E-02
    0.25484392054885849146E-02
    0.29169293080307506089E-02
    0.31562789371097298673E-02
    0.30128456662543547442E-02
    0.24222019669578689384E-02
    0.18119193705904471613E-02
    0.22991905285353630463E-02
    0.39113476782999465065E-02
    0.18888377569758912390E-02
    0.14611559880303944849E-02
    0.10827122177107459128E-02
    0.87705254554235338900E-03
    0.29780067218064818282E-02
    0.55490807242385641572E-03
    0.19277687669158624726E-02
    0.22474867640786978101E-02
    0.28114428461656088692E-03
    0.33157114238407999623E-02
    0.21488756097543830134E-02
    0.37041686063092067044E-02
    0.22247184614305791708E-02
    0.12883727844836419772E-02
    0.46519169492675253429E-03
    0.19304779206033626757E-04
    0.15912234961591493234E-04
    0.75222485710739131351E-04
    0.16703117649471738073E-02
    0.19953211259148787710E-02
    0.28091753324208140925E-02
    0.23770255072485730642E-02
    0.32872066161408210715E-02
    0.20967290964330502143E-02
    0.30251833172990050778E-02
    0.35096346813415476087E-02
    0.26581395696113844368E-02
    0.30991339593611040223E-02
    0.37350802947396857800E-02
    0.22421781767973424440E-02
    0.18132856663756866025E-02
    0.15436545736599331310E-02
    0.15068456365793136053E-04
    0.79518351616932178225E-03
    0.66664595881406893754E-03
    0.38351221680271805475E-03
    0.18141344007187570203E-02
    0.15534202671123261991E-02
    0.18409443631197503714E-02
    0.92376731157918306157E-03
    0.23477525420007162686E-02
    0.46781472773598008295E-03
    0.15260214478479317175E-02
    0.67051839155334630170E-05
    0.97924338006805463377E-05
    0.97585170473360259542E-05
    0.13887544170728557971E-04
    0.17158380840284486889E-04
    0.73435658261740218594E-05
    0.86632567590445692615E-05
    0.13314360742334571328E-02
    0.13391662076216318336E-02
    0.94630917014268021385E-03
    0.22008887129391792835E-02
    0.21870123019394533716E-02
    0.15469011169808554574E-04
    0.12918276348531027627E-02
    0.24459417737284360091E-02
    0.33786965256204083523E-02
    0.18334579532113520067E-02
    0.30294837553165180136E-02
    0.26196937262460058028E-02
    0.23464781024470984794E-02
    0.20023662587364877453E-02
    0.53652113312154729217E-05
    0.49722725261802379099E-05
    0.52938997480501822311E-05
    0.83582685918058774932E-05
    0.57924535319691099972E-05
    0.46694314309465301057E-05
    0.48355944807883236209E-05
    0.24939775855120833482E-02
    0.26491689729610913909E-02
    0.30703365806166896083E-02
    0.28119151166359481961E-02
    0.32415978362295943919E-02
    0.32446635696419859861E-02
    0.23554120594850491352E-02
    0.32601730458241334407E-02
    0.28032702062269852089E-02
    0.23391955069366901845E-02
    0.35193595840778556412E-02
    0.19965574997702351112E-02
    0.24738302668452804602E-02
    0.18451664542753118924E-02
    0.11952296968275708151E-02
    0.20156724224597156840E-02
    0.77629344986787294347E-05
    0.14696051126457198473E-04
    0.73505038181184341077E-05
    0.12817632196993546150E-04
    0.17925707146971965692E-04
    0.24961475616442243934E-02
    0.32264406050725941491E-02
    0.26582759812587399353E-02
    0.35812329578125690066E-02
    0.33640655915120622720E-02
    0.11658009087876460876E-02
    0.97082558333266605506E-03
    0.97111460792352621591E-03
    0.13362580800238329365E-02
    0.70214234346047468827E-03
    0.29096994506508438647E-02
    0.26215508358756328677E-02
    0.31317801661899929977E-02
    0.21303643528367693927E-02
    0.28867363409391904976E-02
    0.64798637103390035324E-03
    0.17081769325371122525E-02
    0.49203762517676784966E-03
    0.56932141448230277458E-03
    0.13906570508234585102E-02
    0.29040915760470435367E-02
    0.26699093707740085418E-02
    0.28460102426457406857E-02
    0.25903929279677737584E-02
    0.21083654316741196923E-02
    0.95350174461671892147E-05
    0.34756939414390973563E-04
    0.12574485915890070158E-04
    0.91382275496971274983E-05
    0.14967237451722270120E-04
    0.37680670834098361483E-05
    0.43966635271589001185E-05
    0.51519330541785202511E-05
    0.27558429653671665958E-05
    0.54305045723982452429E-05
    0.60771614324182270713E-03
    0.32469647310690696179E-02
    0.22218127139503264685E-02
    0.19939332681387293526E-02
    0.32146849649233168005E-02
    0.16404211118689854092E-02
    0.13941946866246090250E-02
    0.19538988212327618350E-02
    0.16282461300378900382E-02
    0.24322402942458637952E-02
    0.34561149902689108568E-02
    0.22498165842692874339E-02
    0.22568390411716030865E-02
    0.38136675793519476778E-02
    0.40682268840268066010E-03
    0.68503110686549448889E-04
    0.26896513526655221535E-04
    0.15810968487888878500E-02
    0.74101744171393166358E-03
    0.14336368074632074767E-02
    0.31731126202579670515E-05
    0.39899216782292255202E-05
    0.59172035911097245117E-05
    0.94574093845028966125E-05
    0.56059334171819286675E-05
    0.56092283800810234081E-05
    0.31374943119587348894E-03
    0.12309705752213569423E-02
    0.30418074684309902821E-02
    0.17783251695959708186E-02
    0.27727372913514108238E-02
    0.16017999370771345263E-02
    0.32810190946086161164E-02
    0.28141940705184091513E-02
    0.33932235552387749952E-02
    0.31777025729048998665E-02
    0.28834527460614542589E-02
    0.61531196869577236414E-03
    0.28459450248297340873E-03
    0.28416328316853158541E-02
    0.24021548787133990138E-02
    0.11464075587205782970E-04
    0.40775649849382157984E-05
    0.48565421786748983916E-05
    0.18749873659586555746E-02
    0.67759462113902043084E-03
    0.48052773765411706835E-05
    0.18601387919339931049E-02
    0.26150150687211672594E-02
    0.90079351788109021833E-03
    0.23471299694628822499E-02
    0.18832549377644901972E-02
    0.20172889899421372721E-02
    0.27193526726571222440E-03
    0.37502795643096448284E-03
    0.88352072467754010087E-05
    0.29504246006707090209E-02
    0.31266612553360016713E-02
    0.23737710026587527726E-02
    0.90137700247861131674E-05
    0.54599202285918796478E-05
    0.60106531111474520860E-05
    0.61133108762597160194E-05
    0.37352388102540177750E-05
    0.50379225982039465792E-05
    0.20175159878400468483E-02
    0.26136562420478143091E-02
    0.30987939977034787212E-02
    0.37154374584089993813E-02
    0.11318352303937937592E-02
    0.22192941262206421389E-02
    0.18134824816682089486E-02
    0.18509694728929652896E-02
    0.34076652092143686914E-04
    0.22494723381581861049E-02
    0.18396849086363999126E-02
    0.16174767596819847066E-03
    0.20743973733202028358E-02
    0.34805278382082122275E-02
    0.21702760540170400357E-02
    0.30816268525293102377E-02
    0.24109043547523379206E-02
    0.36330794401841584674E-05
    0.94041252936848292177E-03
    0.83781260495413034276E-05
    0.92382725623850750691E-05
    0.11194542335942693403E-02
    0.25698270574038778805E-02
    0.51863363501413475043E-05
    0.53875060134913716300E-05
    0.16193897284920758493E-02
    0.58015690030444868816E-03
    0.50943886435858977239E-03
    0.29759626113030237908E-02
    0.94996561207279951050E-05
    0.10732677063404780053E-02
    0.41427894555805342552E-02
    0.72476264386667498706E-05
    0.29217987506442422672E-02
    0.14297813376762877335E-02
    0.30437581379637894050E-02
    0.83752092111339846402E-03
    0.27319219435974688263E-02
    0.92065586915389427625E-05
    0.98820876007990999070E-05
    0.26749876654435312054E-02
    0.17486482909828432886E-02
    0.28727598632831618727E-02
    0.65875081937306033397E-03
    0.29577437535755930764E-02
    0.24939667413310254510E-02
    0.20810522209610822324E-02
    0.23562493256942709623E-03
    0.20364047831173320460E-05
    0.47684779605864229842E-06
    0.25614789862639765830E-02
    0.63573984673029576131E-03
    0.25454547443381822362E-04
    0.27779498489959067963E-04
    0.12737073299637851438E-03
    0.83384270842277736623E-04
    0.28413684429568934276E-03
    0.12709427077212558967E-02
    0.13092661177545191452E-02
    0.32358833541214757946E-02
    0.39063169721974752568E-02
    0.21695424455096465333E-02
    0.38137826812803933638E-03
    0.17785462975083516030E-03
    0.39430747961046591632E-03
    0.10048667115905278598E-03
    0.60518763287159505967E-03
    0.35765987181816749019E-06
    0.83339660842639089534E-06
    0.48537501536980567215E-05
    0.63535584991433585779E-05
    0.12274642366115719440E-05
    0.30419312044251771368E-06
    0.55217010451686655256E-06
    0.15934796713015707515E-05
    0.13234568361761714911E-04
    0.57943056323750490825E-04
    0.92971128955390292428E-07
    0.25948554539624292149E-07
    0.21574376922716088105E-07
    0.69617304407510765263E-07
    0.29461582943947699399E-06
    0.46721134816274064163E-05
    0.27163608886532038863E-04
