# vtk DataFile Version 3.0
LAPLACIEN  2D
ASCII
DATASET UNSTRUCTURED_GRID
 POINTS         391  float
  0.50371505999999999       0.50367786999999997        0.0000000000000000     
  0.29013556000000001       0.29014535000000002        0.0000000000000000     
  0.70165584999999997       0.71206597999999999        0.0000000000000000     
  0.70304188999999995       0.30176619999999998        0.0000000000000000     
  0.30920671999999999       0.71149227999999998        0.0000000000000000     
  0.79044983999999996       0.49884783999999999        0.0000000000000000     
  0.49102621000000002       0.20968644000000000        0.0000000000000000     
  0.49912957000000002       0.77208717000000004        0.0000000000000000     
  0.21724072999999999       0.48989389000000000        0.0000000000000000     
  0.83255933999999998       0.83046598000000005        0.0000000000000000     
  0.16646774000000000       0.17015694000000001        0.0000000000000000     
  0.83054514999999995       0.16736480000000001        0.0000000000000000     
  0.16953130999999999       0.83265739000000005        0.0000000000000000     
  0.42166445000000002       0.36345201999999999        0.0000000000000000     
  0.64462200999999997       0.56347807999999999        0.0000000000000000     
  0.35324633999999999       0.56311191000000005        0.0000000000000000     
  0.65456411000000003       0.84856860999999995        0.0000000000000000     
  0.35141477999999998       0.15563974000000000        0.0000000000000000     
  0.15290967000000000       0.35206625000000003        0.0000000000000000     
  0.82942241000000005       0.34936866000000000        0.0000000000000000     
  0.84390527000000004       0.64441694999999999        0.0000000000000000     
  0.63699174999999997       0.14284276000000001        0.0000000000000000     
  0.15620682999999999       0.64648446999999998        0.0000000000000000     
  0.36426062999999997       0.85756310999999996        0.0000000000000000     
  0.63489340999999999       0.40519052000000000        0.0000000000000000     
  0.52518872999999999       0.65957078000000002        0.0000000000000000     
  0.32158959999999998       0.42298103999999997        0.0000000000000000     
  0.58861710000000000       0.31711036999999997        0.0000000000000000     
  0.42078418000000001       0.69497151999999995        0.0000000000000000     
  0.48608786999999998       0.89334152000000000        0.0000000000000000     
   9.7084320000000002E-002  0.50000000000000000        0.0000000000000000     
  0.90291568000000000       0.50000000000000000        0.0000000000000000     
  0.51392453000000005       0.10668648999999999        0.0000000000000000     
  0.59792566999999996       0.73122754000000001        0.0000000000000000     
  0.74510058999999995       0.41124730999999998        0.0000000000000000     
  0.73212551999999997       0.90191560000000004        0.0000000000000000     
   9.7784830000000003E-002  0.26957329000000002        0.0000000000000000     
  0.26711221000000002        9.8671499999999995E-002   0.0000000000000000     
  0.90191560000000004       0.26787448000000003        0.0000000000000000     
  0.90118569000000004       0.73039821000000005        0.0000000000000000     
  0.73122947000000005        9.8017859999999998E-002   0.0000000000000000     
   9.8084400000000002E-002  0.73212551999999997        0.0000000000000000     
  0.26957329000000002       0.90221516999999996        0.0000000000000000     
  0.39283522999999998       0.25360379000000000        0.0000000000000000     
  0.74480864000000002       0.60495284999999999        0.0000000000000000     
  0.25505132000000003       0.60593640999999998        0.0000000000000000     
  0.52159297999999998       0.40671636000000000        0.0000000000000000     
  0.40768852000000000       0.47699891000000000        0.0000000000000000     
   9.1467049999999994E-002   9.1876959999999994E-002   0.0000000000000000     
  0.90842484999999995       0.90819225000000003        0.0000000000000000     
  0.90820104999999995        9.1566729999999999E-002   0.0000000000000000     
   9.1807449999999999E-002  0.90843574000000005        0.0000000000000000     
  0.27098960000000000       0.20527094000000001        0.0000000000000000     
  0.73457293999999995       0.79835387000000002        0.0000000000000000     
  0.79817773000000003       0.25713470999999999        0.0000000000000000     
  0.20747797000000001       0.72863946000000002        0.0000000000000000     
  0.20175195000000001       0.27583914999999998        0.0000000000000000     
  0.79603889000000005       0.72159035000000005        0.0000000000000000     
  0.71761666000000002       0.19748431999999999        0.0000000000000000     
  0.28462607000000001       0.80251899999999998        0.0000000000000000     
  0.69134598999999997       0.49261972999999998        0.0000000000000000     
  0.44720578999999999       0.58582935999999997        0.0000000000000000     
  0.24242269999999999       0.37228174000000003        0.0000000000000000     
  0.38265623999999998       0.93072131999999996        0.0000000000000000     
  0.60971754000000000       0.91988369000000003        0.0000000000000000     
   7.9163609999999995E-002  0.60979116000000000        0.0000000000000000     
  0.92010649000000000       0.61081183999999999        0.0000000000000000     
  0.61954008999999999        7.1530830000000004E-002   0.0000000000000000     
  0.91882012999999996       0.38917363999999999        0.0000000000000000     
  0.39086346000000000        8.0652249999999995E-002   0.0000000000000000     
   7.9183480000000001E-002  0.38966213000000000        0.0000000000000000     
  0.59114111999999996       0.49294315000000000        0.0000000000000000     
  0.63337980999999999       0.64485914000000000        0.0000000000000000     
  0.50012352000000004       0.29676539000000002        0.0000000000000000     
  0.82552601000000003       0.92753492000000004        0.0000000000000000     
  0.92774772999999999       0.82498556999999995        0.0000000000000000     
   7.1970870000000006E-002  0.17510291000000000        0.0000000000000000     
  0.17422821999999999        7.2635640000000001E-002   0.0000000000000000     
  0.82510813000000005        7.2134840000000006E-002   0.0000000000000000     
  0.92754665000000003       0.17446275999999999        0.0000000000000000     
  0.17501022999999999       0.92789951999999998        0.0000000000000000     
   7.2464680000000004E-002  0.82554053000000005        0.0000000000000000     
  0.30731587999999999       0.50885354999999999        0.0000000000000000     
  0.59033407999999998       0.22171178999999999        0.0000000000000000     
  0.40109191999999999       0.78725542000000004        0.0000000000000000     
  0.35420917000000002       0.63754104000000000        0.0000000000000000     
  0.15983976999999999       0.56665573000000002        0.0000000000000000     
  0.84108459999999996       0.56757886999999996        0.0000000000000000     
  0.83902096000000004       0.43344338999999998        0.0000000000000000     
  0.43230028999999998       0.16004268999999999        0.0000000000000000     
  0.57536027999999995       0.83041363999999995        0.0000000000000000     
  0.15771898000000001       0.42747892999999998        0.0000000000000000     
  0.34021692999999997       0.34221559000000001        0.0000000000000000     
  0.56002271999999997       0.57501117999999996        0.0000000000000000     
  0.65344329000000001       0.78147597999999996        0.0000000000000000     
   0.0000000000000000        0.0000000000000000        0.0000000000000000     
   1.0000000000000000        0.0000000000000000        0.0000000000000000     
   1.0000000000000000        1.0000000000000000        0.0000000000000000     
   0.0000000000000000        1.0000000000000000        0.0000000000000000     
  0.11111111000000000        0.0000000000000000        0.0000000000000000     
  0.22222222000000000        0.0000000000000000        0.0000000000000000     
  0.33333332999999998        0.0000000000000000        0.0000000000000000     
  0.44444444000000000        0.0000000000000000        0.0000000000000000     
  0.55555555999999995        0.0000000000000000        0.0000000000000000     
  0.66666667000000002        0.0000000000000000        0.0000000000000000     
  0.77777777999999997        0.0000000000000000        0.0000000000000000     
  0.88888889000000004        0.0000000000000000        0.0000000000000000     
   1.0000000000000000       0.11111111000000000        0.0000000000000000     
   1.0000000000000000       0.22222222000000000        0.0000000000000000     
   1.0000000000000000       0.33333332999999998        0.0000000000000000     
   1.0000000000000000       0.44444444000000000        0.0000000000000000     
   1.0000000000000000       0.55555555999999995        0.0000000000000000     
   1.0000000000000000       0.66666667000000002        0.0000000000000000     
   1.0000000000000000       0.77777777999999997        0.0000000000000000     
   1.0000000000000000       0.88888889000000004        0.0000000000000000     
  0.88888889000000004        1.0000000000000000        0.0000000000000000     
  0.77777777999999997        1.0000000000000000        0.0000000000000000     
  0.66666667000000002        1.0000000000000000        0.0000000000000000     
  0.55555555999999995        1.0000000000000000        0.0000000000000000     
  0.44444444000000000        1.0000000000000000        0.0000000000000000     
  0.33333332999999998        1.0000000000000000        0.0000000000000000     
  0.22222222000000000        1.0000000000000000        0.0000000000000000     
  0.11111111000000000        1.0000000000000000        0.0000000000000000     
   0.0000000000000000       0.11111111000000000        0.0000000000000000     
   0.0000000000000000       0.22222222000000000        0.0000000000000000     
[...]
 CELL_DATA         354
 SCALARS U float
 LOOKUP_TABLE default
    0.57223782061804617793E-02
    0.41704285153546162557E-01
    0.59507707876309628992E-01
    0.23258246989955033701E+00
    0.69745437046877176157E-02
    0.15939948818886408993E-01
    0.12273886357689726967E+00
    0.15739556886120612683E-01
    0.18007038245947593058E+00
    0.27896645609551162792E+00
    0.47823391746295451643E+00
    0.46063292816171558242E+00
    0.55191065706014352799E+00
    0.60186734344841141819E+00
    0.57783751498927637957E+00
    0.57227628227989812970E+00
    0.37413109215007339658E+00
    0.20995290253191509211E+00
    0.49441679508869823545E-01
    0.13709465481923399643E+00
    0.41685281138407692669E-01
    0.37865806213709531092E-01
    0.12785645162124323337E+00
    0.48016065216299232132E-01
    0.12876111974167536722E+00
    0.95411530475687372777E-01
    0.65619802549654882018E-01
    0.85777380634731587028E-01
    0.64241475129145686473E-01
    0.15992446567606243696E-01
    0.10117291666318728102E-01
    0.15942929156589437378E-01
    0.10769827865461639033E-01
    0.84343535816649283648E-02
    0.16064477942750041844E-01
    0.13730474424594803218E-01
    0.31122671971761842191E-01
    0.16734581800449118555E-01
    0.53159817750803289166E-02
    0.63200383944655774346E-02
    0.41376365109010680710E-02
    0.33701273842279464397E-02
    0.38034727641361020661E-02
    0.33356578766634897501E-02
    0.41095554506550184895E-02
    0.21679956728193252452E-02
    0.66387073070242400008E-02
    0.33947355062815508242E-02
    0.28487651183598524524E-01
    0.74367055662238668035E-01
    0.17328626705244429274E+00
    0.10337609575100445425E+00
    0.54410077470265069341E-02
    0.10309387196274014120E-02
    0.61372431811455305586E-02
    0.99519883814651256999E-03
    0.61324971938836753821E-02
    0.39136134298447386101E-02
    0.69007744023628679944E-02
    0.39170659584025352418E-02
    0.69230734947500656429E-02
    0.44909794741686782579E-02
    0.60389871812860582145E-02
    0.48346540883952224266E-02
    0.14189763233536583503E-01
    0.19530394536575516190E-01
    0.51424525454544553482E-01
    0.48751396453274489784E-01
    0.62558630647844282180E+00
    0.85016546288213212801E+00
    0.87626352069220625474E+00
    0.75950770164894221281E+00
    0.87822720130912113046E+00
    0.81760049721438088355E+00
    0.85548491433195028577E+00
    0.82576268945560993284E+00
    0.84231186010365577399E+00
    0.86815338637512029507E+00
    0.43438876917624080765E+00
    0.67627319495732529653E+00
    0.12792809158327031471E+00
    0.30188435495309917656E+00
    0.75593974373216976659E+00
    0.16210682214567587178E+00
    0.59754136732044094149E+00
    0.75655102032979218429E-01
    0.28833053764312530781E-01
    0.36559750412989422408E+00
    0.49865846455111106916E+00
    0.22394377864051190352E+00
    0.43685836682196256542E-01
    0.21306739939378127602E+00
    0.25694243464734461968E+00
    0.56891792877481923985E-01
    0.50388943195778336526E-01
    0.50349307188184852513E-01
    0.39404351331098735889E+00
    0.73331479022739520790E+00
    0.84361611862962371244E+00
    0.86137010023375337742E+00
    0.86332181924889439539E+00
    0.81655635887337396639E+00
    0.86303241600910773901E+00
    0.37889496104350028904E+00
    0.33057418748087308291E+00
    0.10019707989642206991E+00
    0.10925902966979521291E+00
    0.49298531134551759614E+00
    0.47964577437150401895E+00
    0.34543126744536756245E+00
    0.53981958870257251704E-01
    0.20909720846280785422E+00
    0.67217915245715922912E-01
    0.67524828346210291619E-01
    0.80994325991850957269E+00
    0.14802932559139372892E+00
    0.41068378986721199020E+00
    0.69095741666337684439E+00
    0.73740987999152773913E+00
    0.16072660924780907132E+00
    0.32832207996641304959E+00
    0.13188242573615678588E-01
    0.19397016391766799120E-01
    0.20099900527894669355E-01
    0.32682307277559462244E-01
    0.53693251686089168984E-01
    0.15137724616023759752E-01
    0.17200504943387182749E-01
    0.47319296825567014331E-01
    0.33954613241546183211E+00
    0.46354924852446632855E-01
    0.51140282246006130151E+00
    0.29802760289360863410E+00
    0.41942944752798388963E-01
    0.64807209668422752213E-01
    0.71193782180495679413E+00
    0.84709636359212470147E+00
    0.39452843547764671062E+00
    0.83862328959978760246E+00
    0.78192071103574756208E+00
    0.70192641108158293495E+00
    0.40104710735942350475E+00
    0.10047176149917468740E-01
    0.91426101608313159463E-02
    0.95635354755762829598E-02
    0.16797998848730448518E-01
    0.10501905148909047166E-01
    0.83226050788799115637E-02
    0.87484490211175852670E-02
    0.79694745782152187630E+00
    0.59604173081912315002E+00
    0.26567483111750839209E+00
    0.63250495831027142568E+00
    0.21906528892682439191E+00
    0.78921763929356236744E+00
    0.87119493748317355930E+00
    0.87040845271314126741E+00
    0.85107360410453547495E+00
    0.89503697782458413457E+00
    0.87963232975067717767E+00
    0.77902689599410002153E+00
    0.84029164642219966730E+00
    0.87111531104011974413E+00
    0.85890116646589143024E+00
    0.86018035931783243253E+00
    0.16152423113753523048E-01
    0.35595146388555078121E-01
    0.15227436924141329877E-01
    0.29217034986393001367E-01
    0.38725736913917660487E-01
    0.78860057204512168383E+00
    0.82929881531143845308E+00
    0.87634390616385782202E+00
    0.83082928871153749473E+00
    0.86941887433814502018E+00
    0.59868861242896899422E-01
    0.36232444026060034448E+00
    0.37457362747302758166E+00
    0.49141996596431425370E-01
    0.91434489390093853789E-01
    0.76172383341540184087E+00
    0.71885155113474319410E+00
    0.84588285528298456928E+00
    0.68336010152732995504E+00
    0.86447240568273353567E+00
    0.10016314282608015929E+00
    0.47448580544278573523E+00
    0.15511974252554538989E+00
    0.11622259273664474477E+00
    0.42811929250016633741E+00
    0.68582585350469160712E+00
    0.74356224019237715517E+00
    0.47116365667456872046E+00
    0.84874281770563608784E+00
    0.30318189939578082948E+00
    0.20559985388950728635E-01
    0.11899969327668842578E+00
    0.27351727113992627127E-01
    0.19575107019246845014E-01
    0.32557921971988791621E-01
    0.65417552855960812985E-02
    0.79375589448427465167E-02
    0.91970436055538555553E-02
    0.46671407418496695454E-02
    0.90557229798118917680E-02
    0.41493901935755111987E-01
    0.38042716307841378809E+00
    0.96449324159978172544E-01
    0.54356662588290105553E+00
    0.38592878373696909433E+00
    0.71689266336878498809E+00
    0.58013880326362643469E+00
    0.87091869582355596613E+00
    0.87209162460349853863E+00
    0.87983283548740742752E+00
    0.84993602215656660626E+00
    0.83985932160614618081E+00
    0.87352186918879537458E+00
    0.84714954186215396525E+00
    0.48665934054383082341E-01
    0.61950702657262522038E-02
    0.14848066833497347572E-01
    0.76666284759388569903E+00
    0.13135589086947097037E+00
    0.56859459252705535359E+00
    0.54865502969170809600E-02
    0.69510262493177035412E-02
    0.99080179947825964409E-02
    0.20929681581620479536E-01
    0.11400852089496328265E-01
    0.10808712447776910870E-01
    0.24415452709990764779E-01
    0.51363636494222167372E-01
    0.16980207493202323366E+00
    0.28446792376525337209E+00
    0.53347247709167622265E+00
    0.63495226244296776308E+00
    0.84971558537839453340E+00
    0.77767252420510790678E+00
    0.29087394719589809711E+00
    0.71795277971470794487E+00
    0.73920911516282650222E+00
    0.10913182021587028436E+00
    0.15584594060844528252E+00
    0.75848008775051489749E+00
    0.84324420392998045148E+00
    0.27807093281236983096E-01
    0.72508443095936825004E-02
    0.93028232137835672327E-02
    0.16715787544534829734E+00
    0.10045244489889247272E-01
    0.71197528174828219119E-02
    0.72556047157391390101E+00
    0.56442203886815600633E+00
    0.14517023177202006967E+00
    0.78868876882677141360E+00
    0.38361845254534338023E+00
    0.32999388594973100286E+00
    0.55662151170757109830E-01
    0.26039053184046395684E-01
    0.17925867659722361652E-01
    0.72221128460487937772E+00
    0.86830065919438259581E+00
    0.61618576354071252776E+00
    0.18370666042860698403E-01
    0.10352634883646726419E-01
    0.11476423067544632567E-01
    0.11325920379106731856E-01
    0.68239163809609235806E-02
    0.92622635916343037943E-02
    0.81305401375366659344E+00
    0.22758923646637035931E+00
    0.66638495698603739115E+00
    0.81367411687718127489E+00
    0.40372216278321493288E+00
    0.85008724820680481304E+00
    0.87774636908924863476E+00
    0.75087723041775578103E+00
    0.11703510343738987576E+00
    0.70836147089740952865E+00
    0.63831218036058468002E+00
    0.13017995340726312703E+00
    0.52975302833854009954E+00
    0.38482688941679404904E+00
    0.54927341349485597766E-01
    0.86200786414761776388E+00
    0.84618979786353820671E+00
    0.63877495906199035364E-02
    0.19765124213197638597E-01
    0.18351394549064880407E-01
    0.18146735112141886698E-01
    0.32817323541196152803E+00
    0.90123098353542124839E-01
    0.98235617918391374137E-02
    0.10157374105757267790E-01
    0.68958132437023600403E+00
    0.74455953702953617257E-01
    0.50305304497397243524E-01
    0.60396049665449613730E+00
    0.18886203443673164892E-01
    0.71317183918893367611E+00
    0.16190047761955880801E+00
    0.12535657609782155722E-01
    0.76424310132165762521E+00
    0.83615493576645916196E+00
    0.88700750514545256831E+00
    0.36026702377109515174E+00
    0.83319884396202037458E+00
    0.20462131422196268987E-01
    0.22292746212070436301E-01
    0.26544504485764919277E+00
    0.65311609043915286321E+00
    0.83538225346350203360E+00
    0.42081937669515200040E-01
    0.84799094149274178989E+00
    0.89569628016750790778E+00
    0.21021646359426104933E-01
    0.43776866809585139595E-01
    0.28486449137217267555E-02
    0.54835143447871188740E-03
    0.37424183998553627560E-02
    0.43441044152292231833E-03
    0.68195570060598842410E-01
    0.82835504705605897402E-01
    0.34865708146408358470E+00
    0.21927748779584471661E+00
    0.44212710080154494705E-02
    0.12357136784361667098E-01
    0.10560423699490781302E+00
    0.23700781922247268763E+00
    0.26478953573524827148E+00
    0.19512759076567531835E+00
    0.30035923028315435895E-01
    0.50113327876568107208E-03
    0.53763405472560734256E-03
    0.35425773361532101810E-03
    0.20643325373641854782E-03
    0.18922135866823071846E-03
    0.11124147057585084299E-02
    0.95402480093900888375E-02
    0.15554870646150388558E-01
    0.20855887880154391247E-02
    0.33384510027318297200E-03
    0.73882659243051419535E-03
    0.29786150293358783399E-02
    0.37326288578418277686E-01
    0.15984887882331505482E+00
    0.72687632337921449029E-04
    0.11960652414094357846E-04
    0.10020474483285480495E-04
    0.48638828115528533842E-04
    0.37626193513831294405E-03
    0.11151075184851103050E-01
    0.73135708585106942725E-01
