# vtk DataFile Version 3.0
LAPLACIEN  2D
ASCII
DATASET UNSTRUCTURED_GRID
 POINTS         391  float
  0.50371505999999999       0.50367786999999997        0.0000000000000000     
  0.29013556000000001       0.29014535000000002        0.0000000000000000     
  0.70165584999999997       0.71206597999999999        0.0000000000000000     
  0.70304188999999995       0.30176619999999998        0.0000000000000000     
  0.30920671999999999       0.71149227999999998        0.0000000000000000     
  0.79044983999999996       0.49884783999999999        0.0000000000000000     
  0.49102621000000002       0.20968644000000000        0.0000000000000000     
  0.49912957000000002       0.77208717000000004        0.0000000000000000     
  0.21724072999999999       0.48989389000000000        0.0000000000000000     
  0.83255933999999998       0.83046598000000005        0.0000000000000000     
  0.16646774000000000       0.17015694000000001        0.0000000000000000     
  0.83054514999999995       0.16736480000000001        0.0000000000000000     
  0.16953130999999999       0.83265739000000005        0.0000000000000000     
  0.42166445000000002       0.36345201999999999        0.0000000000000000     
  0.64462200999999997       0.56347807999999999        0.0000000000000000     
  0.35324633999999999       0.56311191000000005        0.0000000000000000     
  0.65456411000000003       0.84856860999999995        0.0000000000000000     
  0.35141477999999998       0.15563974000000000        0.0000000000000000     
  0.15290967000000000       0.35206625000000003        0.0000000000000000     
  0.82942241000000005       0.34936866000000000        0.0000000000000000     
  0.84390527000000004       0.64441694999999999        0.0000000000000000     
  0.63699174999999997       0.14284276000000001        0.0000000000000000     
  0.15620682999999999       0.64648446999999998        0.0000000000000000     
  0.36426062999999997       0.85756310999999996        0.0000000000000000     
  0.63489340999999999       0.40519052000000000        0.0000000000000000     
  0.52518872999999999       0.65957078000000002        0.0000000000000000     
  0.32158959999999998       0.42298103999999997        0.0000000000000000     
  0.58861710000000000       0.31711036999999997        0.0000000000000000     
  0.42078418000000001       0.69497151999999995        0.0000000000000000     
  0.48608786999999998       0.89334152000000000        0.0000000000000000     
   9.7084320000000002E-002  0.50000000000000000        0.0000000000000000     
  0.90291568000000000       0.50000000000000000        0.0000000000000000     
  0.51392453000000005       0.10668648999999999        0.0000000000000000     
  0.59792566999999996       0.73122754000000001        0.0000000000000000     
  0.74510058999999995       0.41124730999999998        0.0000000000000000     
  0.73212551999999997       0.90191560000000004        0.0000000000000000     
   9.7784830000000003E-002  0.26957329000000002        0.0000000000000000     
  0.26711221000000002        9.8671499999999995E-002   0.0000000000000000     
  0.90191560000000004       0.26787448000000003        0.0000000000000000     
  0.90118569000000004       0.73039821000000005        0.0000000000000000     
  0.73122947000000005        9.8017859999999998E-002   0.0000000000000000     
   9.8084400000000002E-002  0.73212551999999997        0.0000000000000000     
  0.26957329000000002       0.90221516999999996        0.0000000000000000     
  0.39283522999999998       0.25360379000000000        0.0000000000000000     
  0.74480864000000002       0.60495284999999999        0.0000000000000000     
  0.25505132000000003       0.60593640999999998        0.0000000000000000     
  0.52159297999999998       0.40671636000000000        0.0000000000000000     
  0.40768852000000000       0.47699891000000000        0.0000000000000000     
   9.1467049999999994E-002   9.1876959999999994E-002   0.0000000000000000     
  0.90842484999999995       0.90819225000000003        0.0000000000000000     
  0.90820104999999995        9.1566729999999999E-002   0.0000000000000000     
   9.1807449999999999E-002  0.90843574000000005        0.0000000000000000     
  0.27098960000000000       0.20527094000000001        0.0000000000000000     
  0.73457293999999995       0.79835387000000002        0.0000000000000000     
  0.79817773000000003       0.25713470999999999        0.0000000000000000     
  0.20747797000000001       0.72863946000000002        0.0000000000000000     
  0.20175195000000001       0.27583914999999998        0.0000000000000000     
  0.79603889000000005       0.72159035000000005        0.0000000000000000     
  0.71761666000000002       0.19748431999999999        0.0000000000000000     
  0.28462607000000001       0.80251899999999998        0.0000000000000000     
  0.69134598999999997       0.49261972999999998        0.0000000000000000     
  0.44720578999999999       0.58582935999999997        0.0000000000000000     
  0.24242269999999999       0.37228174000000003        0.0000000000000000     
  0.38265623999999998       0.93072131999999996        0.0000000000000000     
  0.60971754000000000       0.91988369000000003        0.0000000000000000     
   7.9163609999999995E-002  0.60979116000000000        0.0000000000000000     
  0.92010649000000000       0.61081183999999999        0.0000000000000000     
  0.61954008999999999        7.1530830000000004E-002   0.0000000000000000     
  0.91882012999999996       0.38917363999999999        0.0000000000000000     
  0.39086346000000000        8.0652249999999995E-002   0.0000000000000000     
   7.9183480000000001E-002  0.38966213000000000        0.0000000000000000     
  0.59114111999999996       0.49294315000000000        0.0000000000000000     
  0.63337980999999999       0.64485914000000000        0.0000000000000000     
  0.50012352000000004       0.29676539000000002        0.0000000000000000     
  0.82552601000000003       0.92753492000000004        0.0000000000000000     
  0.92774772999999999       0.82498556999999995        0.0000000000000000     
   7.1970870000000006E-002  0.17510291000000000        0.0000000000000000     
  0.17422821999999999        7.2635640000000001E-002   0.0000000000000000     
  0.82510813000000005        7.2134840000000006E-002   0.0000000000000000     
  0.92754665000000003       0.17446275999999999        0.0000000000000000     
  0.17501022999999999       0.92789951999999998        0.0000000000000000     
   7.2464680000000004E-002  0.82554053000000005        0.0000000000000000     
  0.30731587999999999       0.50885354999999999        0.0000000000000000     
  0.59033407999999998       0.22171178999999999        0.0000000000000000     
  0.40109191999999999       0.78725542000000004        0.0000000000000000     
  0.35420917000000002       0.63754104000000000        0.0000000000000000     
  0.15983976999999999       0.56665573000000002        0.0000000000000000     
  0.84108459999999996       0.56757886999999996        0.0000000000000000     
  0.83902096000000004       0.43344338999999998        0.0000000000000000     
  0.43230028999999998       0.16004268999999999        0.0000000000000000     
  0.57536027999999995       0.83041363999999995        0.0000000000000000     
  0.15771898000000001       0.42747892999999998        0.0000000000000000     
  0.34021692999999997       0.34221559000000001        0.0000000000000000     
  0.56002271999999997       0.57501117999999996        0.0000000000000000     
  0.65344329000000001       0.78147597999999996        0.0000000000000000     
   0.0000000000000000        0.0000000000000000        0.0000000000000000     
   1.0000000000000000        0.0000000000000000        0.0000000000000000     
   1.0000000000000000        1.0000000000000000        0.0000000000000000     
   0.0000000000000000        1.0000000000000000        0.0000000000000000     
  0.11111111000000000        0.0000000000000000        0.0000000000000000     
  0.22222222000000000        0.0000000000000000        0.0000000000000000     
  0.33333332999999998        0.0000000000000000        0.0000000000000000     
  0.44444444000000000        0.0000000000000000        0.0000000000000000     
  0.55555555999999995        0.0000000000000000        0.0000000000000000     
  0.66666667000000002        0.0000000000000000        0.0000000000000000     
  0.77777777999999997        0.0000000000000000        0.0000000000000000     
  0.88888889000000004        0.0000000000000000        0.0000000000000000     
   1.0000000000000000       0.11111111000000000        0.0000000000000000     
   1.0000000000000000       0.22222222000000000        0.0000000000000000     
   1.0000000000000000       0.33333332999999998        0.0000000000000000     
   1.0000000000000000       0.44444444000000000        0.0000000000000000     
   1.0000000000000000       0.55555555999999995        0.0000000000000000     
   1.0000000000000000       0.66666667000000002        0.0000000000000000     
   1.0000000000000000       0.77777777999999997        0.0000000000000000     
   1.0000000000000000       0.88888889000000004        0.0000000000000000     
  0.88888889000000004        1.0000000000000000        0.0000000000000000     
  0.77777777999999997        1.0000000000000000        0.0000000000000000     
  0.66666667000000002        1.0000000000000000        0.0000000000000000     
  0.55555555999999995        1.0000000000000000        0.0000000000000000     
  0.44444444000000000        1.0000000000000000        0.0000000000000000     
  0.33333332999999998        1.0000000000000000        0.0000000000000000     
  0.22222222000000000        1.0000000000000000        0.0000000000000000     
  0.11111111000000000        1.0000000000000000        0.0000000000000000     
   0.0000000000000000       0.11111111000000000        0.0000000000000000     
   0.0000000000000000       0.22222222000000000        0.0000000000000000     
[...]
 CELL_DATA         354
 SCALARS U float
 LOOKUP_TABLE default
    0.54447466487455957462E-02
    0.40784466078996391147E-01
    0.58847119275887115053E-01
    0.23200365193260980012E+00
    0.66329763079137861112E-02
    0.15233927022595242923E-01
    0.12159202055340774529E+00
    0.15037909090935245790E-01
    0.17750950952855021336E+00
    0.27686657207085862975E+00
    0.47664854783162396989E+00
    0.45930876298911205158E+00
    0.55046751286542550119E+00
    0.60097677388944603649E+00
    0.57721208363641562933E+00
    0.57146790230991673099E+00
    0.37241203648294518569E+00
    0.20739284802867025137E+00
    0.47958175839659014650E-01
    0.13554775082243186723E+00
    0.40767177069467593065E-01
    0.37021586822799615324E-01
    0.12656054413607106812E+00
    0.46593862016039842844E-01
    0.12752884499464389734E+00
    0.93952187834738687400E-01
    0.64447709449885676181E-01
    0.84608791156235055309E-01
    0.63294985129869266172E-01
    0.15425411288917941638E-01
    0.97607548693443031002E-02
    0.15377028844435310789E-01
    0.10379179844551418913E-01
    0.81623286236797033127E-02
    0.15591364720698297833E-01
    0.13299572102954416650E-01
    0.30383123631401456888E-01
    0.16290994745988607306E-01
    0.50825739966442956899E-02
    0.60848672717782733774E-02
    0.39612568348462318807E-02
    0.31966400633288219457E-02
    0.36203781511082518303E-02
    0.31642473744086371465E-02
    0.39083214495966326837E-02
    0.20579787785998181031E-02
    0.64097248094388600131E-02
    0.32330818004799905148E-02
    0.28048894137040265850E-01
    0.73701054867515006230E-01
    0.17247038136267217601E+00
    0.10267757889930929915E+00
    0.51821817136469315937E-02
    0.95820250307550531091E-03
    0.58706350910509956520E-02
    0.92518739476321891664E-03
    0.58664035653125685271E-02
    0.37178470522958510618E-02
    0.66026432541355711478E-02
    0.37209453507293451142E-02
    0.66230295038144232356E-02
    0.42898247230889179765E-02
    0.58325047575394813049E-02
    0.46212515220723547962E-02
    0.13764720525689650918E-01
    0.18965752447295924910E-01
    0.50725788529604909360E-01
    0.48110860476374243955E-01
    0.62165357793948827769E+00
    0.84960017796589681893E+00
    0.87638259785985428429E+00
    0.75675691026725511179E+00
    0.87831312351946111416E+00
    0.81751674085338199571E+00
    0.85554567705529427357E+00
    0.82498162580801470689E+00
    0.84235590103817203911E+00
    0.86867896169459801747E+00
    0.42790142209205417334E+00
    0.67335055160633072724E+00
    0.12568840816093959645E+00
    0.29720994872215927840E+00
    0.75280687960109837764E+00
    0.15802207360510489575E+00
    0.59434349915475692683E+00
    0.73086894209189817717E-01
    0.27972269236549801574E-01
    0.36172758573947882965E+00
    0.49618868170305602261E+00
    0.22089541426957634562E+00
    0.42184394388516344154E-01
    0.20879273533630865467E+00
    0.25068424480183221226E+00
    0.55231927060476040947E-01
    0.48988017631366252702E-01
    0.48906065690938527180E-01
    0.38652715587365377159E+00
    0.73211681749578294554E+00
    0.84336670200101926387E+00
    0.86169590091883496719E+00
    0.86340081285519643117E+00
    0.81599776914705046682E+00
    0.86336736914177347746E+00
    0.37455690965517673963E+00
    0.32617980618004915883E+00
    0.97793931538508307999E-01
    0.10652333661145346744E+00
    0.48730881427065442235E+00
    0.47447480331700958578E+00
    0.34050412668786800285E+00
    0.52610993363196335848E-01
    0.20492649247269811852E+00
    0.64982971985425685979E-01
    0.65646344507811635327E-01
    0.80949826524332357813E+00
    0.14626450510821484285E+00
    0.40546283969306085027E+00
    0.68731684419090999238E+00
    0.73432518646155475750E+00
    0.15842714278313710374E+00
    0.32299147417947737804E+00
    0.12735053899470390182E-01
    0.18748714340905046905E-01
    0.19532929417863338639E-01
    0.31605325718450885675E-01
    0.52397333468931890643E-01
    0.14666769824820803311E-01
    0.16671952282525975136E-01
    0.46039629059889529417E-01
    0.33500458779396430353E+00
    0.45116065144557432331E-01
    0.50567188208015134698E+00
    0.29334698621870380908E+00
    0.40890400566529351567E-01
    0.62497481981559604991E-01
    0.70965635349259670317E+00
    0.84680174614370218311E+00
    0.39102832632982864602E+00
    0.83759374294365729341E+00
    0.77997288015242727255E+00
    0.69893682590173034086E+00
    0.39798356401921547443E+00
    0.96993336467199389728E-02
    0.88435919987806775600E-02
    0.92385614499895865603E-02
    0.16209867969714578800E-01
    0.10119514417498906567E-01
    0.80220524062032481233E-02
    0.84398007462611127072E-02
    0.79582531187613225754E+00
    0.59192886251812615317E+00
    0.26224513238943386595E+00
    0.62987713380298782084E+00
    0.21600041122345142730E+00
    0.78761124842068186425E+00
    0.87155885451409853548E+00
    0.87052104564001397957E+00
    0.85090520984345274780E+00
    0.89545527870670049708E+00
    0.88022959579606607772E+00
    0.77810040208924335925E+00
    0.84079437198506146167E+00
    0.87173270758460885688E+00
    0.85962617645756056461E+00
    0.85986872738531716642E+00
    0.15458951028735123945E-01
    0.34281102923790066073E-01
    0.14541651686139642555E-01
    0.28013101200316314204E-01
    0.37304629008376298527E-01
    0.78681498582763720329E+00
    0.82849874771289533371E+00
    0.87643543916569621732E+00
    0.82988282096692600476E+00
    0.86915809015411715777E+00
    0.57381241743708955028E-01
    0.35689380354452560073E+00
    0.36975089025703333778E+00
    0.47520125144554399566E-01
    0.88028229722070555630E-01
    0.75917932908283081161E+00
    0.71690834821639848329E+00
    0.84522784505767134533E+00
    0.68118500515138957763E+00
    0.86442313944587545471E+00
    0.98304275788774417300E-01
    0.46913567213337864503E+00
    0.15107187250805131917E+00
    0.11337650151443434687E+00
    0.42313424147151540433E+00
    0.68173522844313738656E+00
    0.74028592492558309424E+00
    0.46603311926268753407E+00
    0.84755292245341229407E+00
    0.29839553345943375939E+00
    0.19832063294268485049E-01
    0.11751800840440737583E+00
    0.26382747023222598987E-01
    0.18836130904985294576E-01
    0.31377330914819277774E-01
    0.62503751842223074023E-02
    0.76628592509358755408E-02
    0.88431559701445099780E-02
    0.44615139065296649870E-02
    0.86713097195173245019E-02
    0.40302754486692474178E-01
    0.37638144975417192617E+00
    0.93486186781031377357E-01
    0.53883378287868244350E+00
    0.38205662319463828958E+00
    0.71392545410971108844E+00
    0.57637503982407989334E+00
    0.87121315874121818545E+00
    0.87144566374518495078E+00
    0.88008526825581367969E+00
    0.84976972628907221363E+00
    0.83992528003585920082E+00
    0.87400450033388621396E+00
    0.84781094430786319016E+00
    0.47466396381550070294E-01
    0.58467815671069791120E-02
    0.14207075865646874926E-01
    0.76452580552834725758E+00
    0.12916369611038125420E+00
    0.56389436172010443116E+00
    0.52260174050799646991E-02
    0.66117648479189451358E-02
    0.94653849430887653654E-02
    0.20072699379527558089E-01
    0.10903239159109557460E-01
    0.10315382326666702045E-01
    0.23476780694214927775E-01
    0.49130240996524528196E-01
    0.16601977122047925639E+00
    0.28047176219868047431E+00
    0.52947226729773722020E+00
    0.63214927478450944065E+00
    0.84915414171806546939E+00
    0.77683319538068540400E+00
    0.28736347271187340224E+00
    0.71573987608305011943E+00
    0.73524836869201004586E+00
    0.10761516958399397481E+00
    0.15172786266276475087E+00
    0.75599523743928043196E+00
    0.84277359987693067911E+00
    0.26844164274052676605E-01
    0.69203558534281055248E-02
    0.89609907764625386373E-02
    0.16521183611615891662E+00
    0.95834810575870007371E-02
    0.67845459923514227218E-02
    0.72252386280732028290E+00
    0.56076756273679018161E+00
    0.14278083431394603120E+00
    0.78772300951299101257E+00
    0.38027416260150498362E+00
    0.32640393868155670454E+00
    0.54263160081755107411E-01
    0.25117324396881197945E-01
    0.17338979381903121130E-01
    0.71884129415697028964E+00
    0.86837746931447479248E+00
    0.61381164550880806807E+00
    0.17736370417017185974E-01
    0.99557005638246428431E-02
    0.11095158951689412102E-01
    0.10941497497829582794E-01
    0.65844104116457137857E-02
    0.89602735709157534105E-02
    0.81255721143305914556E+00
    0.22507689665303795556E+00
    0.66350973850914718444E+00
    0.81250673250790383939E+00
    0.39902883142808198702E+00
    0.85004664537912166811E+00
    0.87798445355240517518E+00
    0.74826529951844666932E+00
    0.11559413421125881716E+00
    0.70510039037140104234E+00
    0.63265118045438806238E+00
    0.12764355975968391665E+00
    0.52700756383441138553E+00
    0.38046575066473764526E+00
    0.53377734482256994353E-01
    0.86238754951375262703E+00
    0.84659166152650755510E+00
    0.60630531185278929013E-02
    0.18889662180586293955E-01
    0.17856133791638233860E-01
    0.17634497194552112981E-01
    0.32415090182423184073E+00
    0.87719314145376869885E-01
    0.95060620099917669812E-02
    0.98274641353827026091E-02
    0.68555910604102054950E+00
    0.72005815299590977818E-01
    0.48609485016317982575E-01
    0.60084333159642011601E+00
    0.18214424997159167630E-01
    0.70971259963106347879E+00
    0.15943877312396600998E+00
    0.12033854060451999388E-01
    0.76198868692557986115E+00
    0.83485959225190853328E+00
    0.88755905204783913653E+00
    0.35536022803317635077E+00
    0.83320623632230850220E+00
    0.19616791630434119581E-01
    0.21444259349607606990E-01
    0.26150882364445593442E+00
    0.65029021396631236929E+00
    0.83514853757674345491E+00
    0.40702611626700135883E-01
    0.84783451987005609141E+00
    0.89611392496271680130E+00
    0.20033739025420528590E-01
    0.42198012023553763128E-01
    0.26860278198705808336E-02
    0.50984375708563794624E-03
    0.35258542677192908875E-02
    0.40023707617763951052E-03
    0.67656809443354642974E-01
    0.82044949665065869393E-01
    0.34807186647768517673E+00
    0.21882717692728148595E+00
    0.41698014928015511918E-02
    0.12043366327762587698E-01
    0.10421916698240746291E+00
    0.23486794795392151869E+00
    0.26289223406795142468E+00
    0.19387590170062879436E+00
    0.29311523647420626576E-01
    0.46459805561859592342E-03
    0.50300063980453788362E-03
    0.33428847100921570178E-03
    0.19425055934392372278E-03
    0.17703525135453858429E-03
    0.10524404669656792048E-02
    0.92165160272458784146E-02
    0.15133735825999916624E-01
    0.19767891455817988497E-02
    0.30786629465230137435E-03
    0.68906390499973635064E-03
    0.28290403375524483462E-02
    0.36796800850136597572E-01
    0.15872677576967417212E+00
    0.66474847791370337527E-04
    0.10606478031566911148E-04
    0.89066471380090777432E-05
    0.44126041209473507241E-04
    0.35666378900594815186E-03
    0.10839175235947927367E-01
    0.72219406846521630450E-01
