# vtk DataFile Version 3.0
LAPLACIEN  2D
ASCII
DATASET UNSTRUCTURED_GRID
 POINTS         391  float
  0.50371505999999999       0.50367786999999997        0.0000000000000000     
  0.29013556000000001       0.29014535000000002        0.0000000000000000     
  0.70165584999999997       0.71206597999999999        0.0000000000000000     
  0.70304188999999995       0.30176619999999998        0.0000000000000000     
  0.30920671999999999       0.71149227999999998        0.0000000000000000     
  0.79044983999999996       0.49884783999999999        0.0000000000000000     
  0.49102621000000002       0.20968644000000000        0.0000000000000000     
  0.49912957000000002       0.77208717000000004        0.0000000000000000     
  0.21724072999999999       0.48989389000000000        0.0000000000000000     
  0.83255933999999998       0.83046598000000005        0.0000000000000000     
  0.16646774000000000       0.17015694000000001        0.0000000000000000     
  0.83054514999999995       0.16736480000000001        0.0000000000000000     
  0.16953130999999999       0.83265739000000005        0.0000000000000000     
  0.42166445000000002       0.36345201999999999        0.0000000000000000     
  0.64462200999999997       0.56347807999999999        0.0000000000000000     
  0.35324633999999999       0.56311191000000005        0.0000000000000000     
  0.65456411000000003       0.84856860999999995        0.0000000000000000     
  0.35141477999999998       0.15563974000000000        0.0000000000000000     
  0.15290967000000000       0.35206625000000003        0.0000000000000000     
  0.82942241000000005       0.34936866000000000        0.0000000000000000     
  0.84390527000000004       0.64441694999999999        0.0000000000000000     
  0.63699174999999997       0.14284276000000001        0.0000000000000000     
  0.15620682999999999       0.64648446999999998        0.0000000000000000     
  0.36426062999999997       0.85756310999999996        0.0000000000000000     
  0.63489340999999999       0.40519052000000000        0.0000000000000000     
  0.52518872999999999       0.65957078000000002        0.0000000000000000     
  0.32158959999999998       0.42298103999999997        0.0000000000000000     
  0.58861710000000000       0.31711036999999997        0.0000000000000000     
  0.42078418000000001       0.69497151999999995        0.0000000000000000     
  0.48608786999999998       0.89334152000000000        0.0000000000000000     
   9.7084320000000002E-002  0.50000000000000000        0.0000000000000000     
  0.90291568000000000       0.50000000000000000        0.0000000000000000     
  0.51392453000000005       0.10668648999999999        0.0000000000000000     
  0.59792566999999996       0.73122754000000001        0.0000000000000000     
  0.74510058999999995       0.41124730999999998        0.0000000000000000     
  0.73212551999999997       0.90191560000000004        0.0000000000000000     
   9.7784830000000003E-002  0.26957329000000002        0.0000000000000000     
  0.26711221000000002        9.8671499999999995E-002   0.0000000000000000     
  0.90191560000000004       0.26787448000000003        0.0000000000000000     
  0.90118569000000004       0.73039821000000005        0.0000000000000000     
  0.73122947000000005        9.8017859999999998E-002   0.0000000000000000     
   9.8084400000000002E-002  0.73212551999999997        0.0000000000000000     
  0.26957329000000002       0.90221516999999996        0.0000000000000000     
  0.39283522999999998       0.25360379000000000        0.0000000000000000     
  0.74480864000000002       0.60495284999999999        0.0000000000000000     
  0.25505132000000003       0.60593640999999998        0.0000000000000000     
  0.52159297999999998       0.40671636000000000        0.0000000000000000     
  0.40768852000000000       0.47699891000000000        0.0000000000000000     
   9.1467049999999994E-002   9.1876959999999994E-002   0.0000000000000000     
  0.90842484999999995       0.90819225000000003        0.0000000000000000     
  0.90820104999999995        9.1566729999999999E-002   0.0000000000000000     
   9.1807449999999999E-002  0.90843574000000005        0.0000000000000000     
  0.27098960000000000       0.20527094000000001        0.0000000000000000     
  0.73457293999999995       0.79835387000000002        0.0000000000000000     
  0.79817773000000003       0.25713470999999999        0.0000000000000000     
  0.20747797000000001       0.72863946000000002        0.0000000000000000     
  0.20175195000000001       0.27583914999999998        0.0000000000000000     
  0.79603889000000005       0.72159035000000005        0.0000000000000000     
  0.71761666000000002       0.19748431999999999        0.0000000000000000     
  0.28462607000000001       0.80251899999999998        0.0000000000000000     
  0.69134598999999997       0.49261972999999998        0.0000000000000000     
  0.44720578999999999       0.58582935999999997        0.0000000000000000     
  0.24242269999999999       0.37228174000000003        0.0000000000000000     
  0.38265623999999998       0.93072131999999996        0.0000000000000000     
  0.60971754000000000       0.91988369000000003        0.0000000000000000     
   7.9163609999999995E-002  0.60979116000000000        0.0000000000000000     
  0.92010649000000000       0.61081183999999999        0.0000000000000000     
  0.61954008999999999        7.1530830000000004E-002   0.0000000000000000     
  0.91882012999999996       0.38917363999999999        0.0000000000000000     
  0.39086346000000000        8.0652249999999995E-002   0.0000000000000000     
   7.9183480000000001E-002  0.38966213000000000        0.0000000000000000     
  0.59114111999999996       0.49294315000000000        0.0000000000000000     
  0.63337980999999999       0.64485914000000000        0.0000000000000000     
  0.50012352000000004       0.29676539000000002        0.0000000000000000     
  0.82552601000000003       0.92753492000000004        0.0000000000000000     
  0.92774772999999999       0.82498556999999995        0.0000000000000000     
   7.1970870000000006E-002  0.17510291000000000        0.0000000000000000     
  0.17422821999999999        7.2635640000000001E-002   0.0000000000000000     
  0.82510813000000005        7.2134840000000006E-002   0.0000000000000000     
  0.92754665000000003       0.17446275999999999        0.0000000000000000     
  0.17501022999999999       0.92789951999999998        0.0000000000000000     
   7.2464680000000004E-002  0.82554053000000005        0.0000000000000000     
  0.30731587999999999       0.50885354999999999        0.0000000000000000     
  0.59033407999999998       0.22171178999999999        0.0000000000000000     
  0.40109191999999999       0.78725542000000004        0.0000000000000000     
  0.35420917000000002       0.63754104000000000        0.0000000000000000     
  0.15983976999999999       0.56665573000000002        0.0000000000000000     
  0.84108459999999996       0.56757886999999996        0.0000000000000000     
  0.83902096000000004       0.43344338999999998        0.0000000000000000     
  0.43230028999999998       0.16004268999999999        0.0000000000000000     
  0.57536027999999995       0.83041363999999995        0.0000000000000000     
  0.15771898000000001       0.42747892999999998        0.0000000000000000     
  0.34021692999999997       0.34221559000000001        0.0000000000000000     
  0.56002271999999997       0.57501117999999996        0.0000000000000000     
  0.65344329000000001       0.78147597999999996        0.0000000000000000     
   0.0000000000000000        0.0000000000000000        0.0000000000000000     
   1.0000000000000000        0.0000000000000000        0.0000000000000000     
   1.0000000000000000        1.0000000000000000        0.0000000000000000     
   0.0000000000000000        1.0000000000000000        0.0000000000000000     
  0.11111111000000000        0.0000000000000000        0.0000000000000000     
  0.22222222000000000        0.0000000000000000        0.0000000000000000     
  0.33333332999999998        0.0000000000000000        0.0000000000000000     
  0.44444444000000000        0.0000000000000000        0.0000000000000000     
  0.55555555999999995        0.0000000000000000        0.0000000000000000     
  0.66666667000000002        0.0000000000000000        0.0000000000000000     
  0.77777777999999997        0.0000000000000000        0.0000000000000000     
  0.88888889000000004        0.0000000000000000        0.0000000000000000     
   1.0000000000000000       0.11111111000000000        0.0000000000000000     
   1.0000000000000000       0.22222222000000000        0.0000000000000000     
   1.0000000000000000       0.33333332999999998        0.0000000000000000     
   1.0000000000000000       0.44444444000000000        0.0000000000000000     
   1.0000000000000000       0.55555555999999995        0.0000000000000000     
   1.0000000000000000       0.66666667000000002        0.0000000000000000     
   1.0000000000000000       0.77777777999999997        0.0000000000000000     
   1.0000000000000000       0.88888889000000004        0.0000000000000000     
  0.88888889000000004        1.0000000000000000        0.0000000000000000     
  0.77777777999999997        1.0000000000000000        0.0000000000000000     
  0.66666667000000002        1.0000000000000000        0.0000000000000000     
  0.55555555999999995        1.0000000000000000        0.0000000000000000     
  0.44444444000000000        1.0000000000000000        0.0000000000000000     
  0.33333332999999998        1.0000000000000000        0.0000000000000000     
  0.22222222000000000        1.0000000000000000        0.0000000000000000     
  0.11111111000000000        1.0000000000000000        0.0000000000000000     
   0.0000000000000000       0.11111111000000000        0.0000000000000000     
   0.0000000000000000       0.22222222000000000        0.0000000000000000     
[...]
 CELL_DATA         354
 SCALARS U float
 LOOKUP_TABLE default
    0.24087200499175125514E-06
    0.54510233767303937786E-03
    0.29679188917028514394E-05
    0.15462215716511438281E-04
    0.30545824590055158249E-06
    0.47141041054009070717E-04
    0.31705276107442132566E-03
    0.84144262287827876600E-04
    0.41779356372640341025E-03
    0.82609522292471048149E-03
    0.10395513468980472835E-02
    0.11555554643286249789E-02
    0.13956838938910056964E-02
    0.13544820891481603765E-02
    0.15055060263059578344E-02
    0.12710229181348213327E-02
    0.85919212783433724159E-03
    0.35785542381081231287E-03
    0.61134938762941160549E-03
    0.33721759935999675358E-03
    0.47546726486502268903E-03
    0.56154469769511660814E-03
    0.66068540592965246169E-03
    0.27719306880046365839E-03
    0.56164664456332172564E-03
    0.25304675309889855311E-03
    0.37733282381187123033E-03
    0.44352037609777860772E-03
    0.13020717676409093570E-03
    0.22827795264483359322E-04
    0.51658749280844721179E-06
    0.84153312501144966107E-06
    0.55296154295190238071E-06
    0.47086932102262923200E-06
    0.92735310412916578709E-06
    0.74266551678525476370E-06
    0.11473276634945004653E-05
    0.71177812225473833159E-06
    0.25060133174138363099E-06
    0.30767887100462558773E-06
    0.20643370019926376410E-06
    0.15287793878006306908E-06
    0.18017475586955043972E-06
    0.15149283067914200160E-06
    0.19148289827017176830E-06
    0.10133448431372494456E-06
    0.35324574013485941959E-06
    0.14128161867186907298E-06
    0.13929824865981732266E-05
    0.42293414904757799388E-05
    0.11074157447239757869E-04
    0.62509420320981835608E-05
    0.22908967077653719026E-06
    0.53479289815669032573E-07
    0.28882378642339300267E-06
    0.54089331511081037482E-07
    0.28810067100228899185E-06
    0.19033236263154329491E-06
    0.28375620213593781114E-06
    0.19033471770100411888E-06
    0.28375250387155000842E-06
    0.21508907905437577957E-06
    0.31425322749799709103E-06
    0.22940463427872360708E-06
    0.67172639214088411323E-06
    0.77881578911941275223E-06
    0.29809056441524424817E-05
    0.26357560706720223051E-05
    0.68200072815744199224E-03
    0.15112982951241077725E-02
    0.12186480153984107552E-02
    0.11565228116755296283E-02
    0.15575312341206289362E-02
    0.14479626874753391465E-02
    0.11800809983436874682E-02
    0.87360056958591671920E-03
    0.10810365911128392950E-02
    0.18818297206587058980E-02
    0.40249421771865607740E-03
    0.38919240011825695065E-03
    0.17933496037888783958E-03
    0.11811420712181338092E-03
    0.71040657620362356647E-03
    0.13333571827936762126E-03
    0.78362204640400735887E-03
    0.37863612878763622032E-03
    0.40689758321636017920E-05
    0.87969621768260904127E-03
    0.68410787066673997298E-03
    0.70359478564353860122E-03
    0.49224555955273052634E-03
    0.27785860820843264135E-03
    0.18544050929278214131E-04
    0.19799913517409867127E-05
    0.16720417916376865515E-05
    0.87534734306795869147E-05
    0.28763076740189185169E-03
    0.94033479625411139219E-03
    0.13262066821133715582E-02
    0.11257473732839431112E-02
    0.16065842936107000826E-02
    0.97584215441475039444E-03
    0.15033260477775561414E-02
    0.10599901346616210675E-02
    0.88956256006163139487E-03
    0.41704283528985302805E-03
    0.56705190161689751800E-03
    0.66001138516523375280E-03
    0.54537918268645485531E-03
    0.24991082398592723030E-03
    0.16135704864076566071E-05
    0.10339447604606735915E-03
    0.17880922191856642438E-04
    0.68260934183014592493E-05
    0.77490083185589603981E-03
    0.29455561724137547131E-03
    0.33632100490272085576E-03
    0.27315754558427849351E-03
    0.56101938859720297623E-03
    0.84503207103378714520E-05
    0.33106719220281729437E-03
    0.67774075063025762855E-06
    0.10381935704602599563E-05
    0.11070592334075873691E-05
    0.14847788374559086561E-05
    0.19515280839256424619E-05
    0.76773343209608542097E-06
    0.94004601839738980670E-06
    0.29828783216931652753E-03
    0.34614623450552472897E-03
    0.97169187312712504835E-04
    0.62379589078139147974E-03
    0.49085370231893355776E-03
    0.20866301471960883869E-05
    0.20354527447860116043E-03
    0.12125699682386827365E-02
    0.15689565184883078833E-02
    0.80115140716505953578E-03
    0.14204595793686145000E-02
    0.99647051307629169042E-03
    0.10535407436154612532E-02
    0.88646802608141736426E-03
    0.54235577614714134657E-06
    0.52955156434237276476E-06
    0.55680760107913834180E-06
    0.86802692429654457723E-06
    0.58662346449707028728E-06
    0.46550321270461074713E-06
    0.48895672359390173344E-06
    0.92664291856737980232E-03
    0.78091999444077596360E-03
    0.54516768368422072102E-03
    0.10393261273085596663E-02
    0.55405488882221982233E-03
    0.12004269640004425028E-02
    0.11137096906047574615E-02
    0.15977501290822349132E-02
    0.13223804293104593141E-02
    0.11046757839070255047E-02
    0.17639615969954590153E-02
    0.53395533064557528392E-03
    0.11231182076522445643E-02
    0.83846275859968068169E-03
    0.46705592265037891575E-03
    0.53893629949437510569E-03
    0.70931163740948537198E-06
    0.14874377631309273867E-05
    0.65066462018121524253E-06
    0.12195984634861354739E-05
    0.18359201968672510555E-05
    0.10097232606154241206E-02
    0.14715004763028725118E-02
    0.12121235555883390703E-02
    0.15740092066217246328E-02
    0.14450694984174383955E-02
    0.16382399582704756588E-03
    0.20346760501091439586E-03
    0.28423469312013427499E-03
    0.19076907084275530283E-03
    0.14977860843572008863E-03
    0.12362615477611951266E-02
    0.11962316972816615206E-02
    0.13885375213840049982E-02
    0.92257146864727556865E-03
    0.13903832564841412441E-02
    0.11196202616649693047E-03
    0.41351967404119465430E-03
    0.37974500018734146567E-04
    0.12540556829372358563E-03
    0.27936676579869720947E-03
    0.80193911055982604504E-03
    0.94493149369624586820E-03
    0.34606156782643739209E-03
    0.76488777283924096455E-03
    0.14179136699297927135E-03
    0.96198697398652924634E-06
    0.44534682246500780314E-05
    0.13010616130941844584E-05
    0.89089843972035595945E-06
    0.14835825992565223983E-05
    0.32729258732551828407E-06
    0.45180546991648546212E-06
    0.50245028434292258622E-06
    0.23786860031392380619E-06
    0.51948721058061159044E-06
    0.11435675111255454628E-04
    0.87142411871624970467E-03
    0.39498078813174109262E-03
    0.80380972968666032554E-03
    0.89200609751040218880E-03
    0.46819225862517984457E-03
    0.35209507330195973993E-03
    0.82949644105163834133E-03
    0.52458946984965701237E-03
    0.11546309207484813878E-02
    0.16482880161913721680E-02
    0.10014802377768189726E-02
    0.99346728725470075973E-03
    0.17999876475115936768E-02
    0.97613138191995883639E-05
    0.15763669871045173035E-06
    0.32344426639918995847E-06
    0.63314451563227470629E-03
    0.27363834575099463920E-04
    0.30035353017224025902E-03
    0.25819957672324815428E-06
    0.31988840505160990164E-06
    0.54501450730128366228E-06
    0.89048773559518682923E-06
    0.49684543550729365969E-06
    0.47288099497986776666E-06
    0.25247499167634227078E-05
    0.28991455040552400373E-03
    0.65420970732100991972E-03
    0.53195555861519768989E-03
    0.75872217595479010330E-03
    0.74872660780518716234E-03
    0.12279940460945305836E-02
    0.12676006029263739948E-02
    0.10110516850510722995E-02
    0.12040254736706251359E-02
    0.70012839235034898984E-03
    0.81499561528087713629E-04
    0.77480552075067814005E-04
    0.12545304206083120798E-02
    0.11374066549305849021E-02
    0.11811246252890596014E-05
    0.34581113688414510265E-06
    0.46258612498253596797E-06
    0.44395121242154166573E-03
    0.44328450621546268862E-04
    0.33717015259429998440E-06
    0.59610746622374940259E-03
    0.94408103151116329679E-03
    0.26319459251875168852E-03
    0.10778386326333391776E-02
    0.70483077987943060574E-03
    0.71391010291019219546E-03
    0.19470579325366763409E-04
    0.91720127176899690353E-04
    0.94515300095682815676E-06
    0.10198727910828732628E-02
    0.13312839959062146462E-02
    0.10435918631134693309E-02
    0.93476034593950392586E-06
    0.51804012105576453399E-06
    0.61721438855384296309E-06
    0.64607405215508638130E-06
    0.38073927339511690470E-06
    0.53087993232738682813E-06
    0.94177372714638956600E-03
    0.87667414525056941432E-03
    0.12005035595066297291E-02
    0.16507229071500420167E-02
    0.35910886315822400502E-03
    0.10334573464059995836E-02
    0.58973055053565884287E-03
    0.52201636217268098956E-03
    0.43903107098557412014E-05
    0.55351728881718881281E-03
    0.31392876253127422782E-03
    0.63789326323304189011E-05
    0.90064931417930703048E-03
    0.91740863830967246152E-03
    0.39107230304374538364E-03
    0.14786004780071549617E-02
    0.11075668511258882337E-02
    0.64690334006124042420E-06
    0.95948359310257501646E-04
    0.92858703469372386795E-06
    0.10575036325925959821E-05
    0.35209535061349203850E-03
    0.58351021535789967393E-03
    0.54717024225810531190E-06
    0.56397988151245915848E-06
    0.53485461876274598223E-03
    0.48811256992445089945E-04
    0.13043667077353688992E-03
    0.85910233320475701442E-03
    0.98489842780594422241E-06
    0.31780815307571409550E-03
    0.68188654169875771889E-03
    0.71775925747213017703E-06
    0.12685222156998824435E-02
    0.62539621033152678620E-03
    0.15262851334651092450E-02
    0.26638565279906611027E-03
    0.12654341483583086709E-02
    0.86159253019697057048E-06
    0.97913662984075396381E-06
    0.69770712218185479588E-03
    0.83014932995356584960E-03
    0.12630851571646352013E-02
    0.14601414007849592347E-03
    0.14188650122215031631E-02
    0.11998203547664201135E-02
    0.14949102868678986410E-03
    0.74093630546359276999E-04
    0.13814053639704545356E-06
    0.27782019589801848899E-07
    0.53174643421253608554E-03
    0.67769850993528204838E-05
    0.37855693245387454780E-05
    0.40321258377285308422E-05
    0.22924368368738926851E-04
    0.14382963708615942284E-04
    0.46558681121354112179E-04
    0.19203372425623569612E-03
    0.72770362025231783137E-03
    0.18875750014689528407E-02
    0.22874114544884391158E-02
    0.12252767305579951446E-02
    0.13441753107701546435E-03
    0.28600637287231171881E-05
    0.51510368901253721508E-04
    0.48925398179880072604E-05
    0.16652965847463428603E-04
    0.17296947194219459069E-07
    0.58478575361613569350E-07
    0.46968207393918548324E-06
    0.64168341060566105663E-06
    0.83432651855786577461E-07
    0.15135736251023811511E-07
    0.29994505532051095866E-07
    0.10687367359095258615E-06
    0.17159277177626619181E-05
    0.92134765849715499032E-05
    0.99454723103919137670E-08
    0.99220851067174461757E-08
    0.99229819617644825784E-08
    0.99405235297734576936E-08
    0.23478152772907997871E-07
    0.47181729705712748955E-06
    0.39472372875763800124E-05
