# vtk DataFile Version 3.0
LAPLACIEN  2D
ASCII
DATASET UNSTRUCTURED_GRID
 POINTS         391  float
  0.50371505999999999       0.50367786999999997        0.0000000000000000     
  0.29013556000000001       0.29014535000000002        0.0000000000000000     
  0.70165584999999997       0.71206597999999999        0.0000000000000000     
  0.70304188999999995       0.30176619999999998        0.0000000000000000     
  0.30920671999999999       0.71149227999999998        0.0000000000000000     
  0.79044983999999996       0.49884783999999999        0.0000000000000000     
  0.49102621000000002       0.20968644000000000        0.0000000000000000     
  0.49912957000000002       0.77208717000000004        0.0000000000000000     
  0.21724072999999999       0.48989389000000000        0.0000000000000000     
  0.83255933999999998       0.83046598000000005        0.0000000000000000     
  0.16646774000000000       0.17015694000000001        0.0000000000000000     
  0.83054514999999995       0.16736480000000001        0.0000000000000000     
  0.16953130999999999       0.83265739000000005        0.0000000000000000     
  0.42166445000000002       0.36345201999999999        0.0000000000000000     
  0.64462200999999997       0.56347807999999999        0.0000000000000000     
  0.35324633999999999       0.56311191000000005        0.0000000000000000     
  0.65456411000000003       0.84856860999999995        0.0000000000000000     
  0.35141477999999998       0.15563974000000000        0.0000000000000000     
  0.15290967000000000       0.35206625000000003        0.0000000000000000     
  0.82942241000000005       0.34936866000000000        0.0000000000000000     
  0.84390527000000004       0.64441694999999999        0.0000000000000000     
  0.63699174999999997       0.14284276000000001        0.0000000000000000     
  0.15620682999999999       0.64648446999999998        0.0000000000000000     
  0.36426062999999997       0.85756310999999996        0.0000000000000000     
  0.63489340999999999       0.40519052000000000        0.0000000000000000     
  0.52518872999999999       0.65957078000000002        0.0000000000000000     
  0.32158959999999998       0.42298103999999997        0.0000000000000000     
  0.58861710000000000       0.31711036999999997        0.0000000000000000     
  0.42078418000000001       0.69497151999999995        0.0000000000000000     
  0.48608786999999998       0.89334152000000000        0.0000000000000000     
   9.7084320000000002E-002  0.50000000000000000        0.0000000000000000     
  0.90291568000000000       0.50000000000000000        0.0000000000000000     
  0.51392453000000005       0.10668648999999999        0.0000000000000000     
  0.59792566999999996       0.73122754000000001        0.0000000000000000     
  0.74510058999999995       0.41124730999999998        0.0000000000000000     
  0.73212551999999997       0.90191560000000004        0.0000000000000000     
   9.7784830000000003E-002  0.26957329000000002        0.0000000000000000     
  0.26711221000000002        9.8671499999999995E-002   0.0000000000000000     
  0.90191560000000004       0.26787448000000003        0.0000000000000000     
  0.90118569000000004       0.73039821000000005        0.0000000000000000     
  0.73122947000000005        9.8017859999999998E-002   0.0000000000000000     
   9.8084400000000002E-002  0.73212551999999997        0.0000000000000000     
  0.26957329000000002       0.90221516999999996        0.0000000000000000     
  0.39283522999999998       0.25360379000000000        0.0000000000000000     
  0.74480864000000002       0.60495284999999999        0.0000000000000000     
  0.25505132000000003       0.60593640999999998        0.0000000000000000     
  0.52159297999999998       0.40671636000000000        0.0000000000000000     
  0.40768852000000000       0.47699891000000000        0.0000000000000000     
   9.1467049999999994E-002   9.1876959999999994E-002   0.0000000000000000     
  0.90842484999999995       0.90819225000000003        0.0000000000000000     
  0.90820104999999995        9.1566729999999999E-002   0.0000000000000000     
   9.1807449999999999E-002  0.90843574000000005        0.0000000000000000     
  0.27098960000000000       0.20527094000000001        0.0000000000000000     
  0.73457293999999995       0.79835387000000002        0.0000000000000000     
  0.79817773000000003       0.25713470999999999        0.0000000000000000     
  0.20747797000000001       0.72863946000000002        0.0000000000000000     
  0.20175195000000001       0.27583914999999998        0.0000000000000000     
  0.79603889000000005       0.72159035000000005        0.0000000000000000     
  0.71761666000000002       0.19748431999999999        0.0000000000000000     
  0.28462607000000001       0.80251899999999998        0.0000000000000000     
  0.69134598999999997       0.49261972999999998        0.0000000000000000     
  0.44720578999999999       0.58582935999999997        0.0000000000000000     
  0.24242269999999999       0.37228174000000003        0.0000000000000000     
  0.38265623999999998       0.93072131999999996        0.0000000000000000     
  0.60971754000000000       0.91988369000000003        0.0000000000000000     
   7.9163609999999995E-002  0.60979116000000000        0.0000000000000000     
  0.92010649000000000       0.61081183999999999        0.0000000000000000     
  0.61954008999999999        7.1530830000000004E-002   0.0000000000000000     
  0.91882012999999996       0.38917363999999999        0.0000000000000000     
  0.39086346000000000        8.0652249999999995E-002   0.0000000000000000     
   7.9183480000000001E-002  0.38966213000000000        0.0000000000000000     
  0.59114111999999996       0.49294315000000000        0.0000000000000000     
  0.63337980999999999       0.64485914000000000        0.0000000000000000     
  0.50012352000000004       0.29676539000000002        0.0000000000000000     
  0.82552601000000003       0.92753492000000004        0.0000000000000000     
  0.92774772999999999       0.82498556999999995        0.0000000000000000     
   7.1970870000000006E-002  0.17510291000000000        0.0000000000000000     
  0.17422821999999999        7.2635640000000001E-002   0.0000000000000000     
  0.82510813000000005        7.2134840000000006E-002   0.0000000000000000     
  0.92754665000000003       0.17446275999999999        0.0000000000000000     
  0.17501022999999999       0.92789951999999998        0.0000000000000000     
   7.2464680000000004E-002  0.82554053000000005        0.0000000000000000     
  0.30731587999999999       0.50885354999999999        0.0000000000000000     
  0.59033407999999998       0.22171178999999999        0.0000000000000000     
  0.40109191999999999       0.78725542000000004        0.0000000000000000     
  0.35420917000000002       0.63754104000000000        0.0000000000000000     
  0.15983976999999999       0.56665573000000002        0.0000000000000000     
  0.84108459999999996       0.56757886999999996        0.0000000000000000     
  0.83902096000000004       0.43344338999999998        0.0000000000000000     
  0.43230028999999998       0.16004268999999999        0.0000000000000000     
  0.57536027999999995       0.83041363999999995        0.0000000000000000     
  0.15771898000000001       0.42747892999999998        0.0000000000000000     
  0.34021692999999997       0.34221559000000001        0.0000000000000000     
  0.56002271999999997       0.57501117999999996        0.0000000000000000     
  0.65344329000000001       0.78147597999999996        0.0000000000000000     
   0.0000000000000000        0.0000000000000000        0.0000000000000000     
   1.0000000000000000        0.0000000000000000        0.0000000000000000     
   1.0000000000000000        1.0000000000000000        0.0000000000000000     
   0.0000000000000000        1.0000000000000000        0.0000000000000000     
  0.11111111000000000        0.0000000000000000        0.0000000000000000     
  0.22222222000000000        0.0000000000000000        0.0000000000000000     
  0.33333332999999998        0.0000000000000000        0.0000000000000000     
  0.44444444000000000        0.0000000000000000        0.0000000000000000     
  0.55555555999999995        0.0000000000000000        0.0000000000000000     
  0.66666667000000002        0.0000000000000000        0.0000000000000000     
  0.77777777999999997        0.0000000000000000        0.0000000000000000     
  0.88888889000000004        0.0000000000000000        0.0000000000000000     
   1.0000000000000000       0.11111111000000000        0.0000000000000000     
   1.0000000000000000       0.22222222000000000        0.0000000000000000     
   1.0000000000000000       0.33333332999999998        0.0000000000000000     
   1.0000000000000000       0.44444444000000000        0.0000000000000000     
   1.0000000000000000       0.55555555999999995        0.0000000000000000     
   1.0000000000000000       0.66666667000000002        0.0000000000000000     
   1.0000000000000000       0.77777777999999997        0.0000000000000000     
   1.0000000000000000       0.88888889000000004        0.0000000000000000     
  0.88888889000000004        1.0000000000000000        0.0000000000000000     
  0.77777777999999997        1.0000000000000000        0.0000000000000000     
  0.66666667000000002        1.0000000000000000        0.0000000000000000     
  0.55555555999999995        1.0000000000000000        0.0000000000000000     
  0.44444444000000000        1.0000000000000000        0.0000000000000000     
  0.33333332999999998        1.0000000000000000        0.0000000000000000     
  0.22222222000000000        1.0000000000000000        0.0000000000000000     
  0.11111111000000000        1.0000000000000000        0.0000000000000000     
   0.0000000000000000       0.11111111000000000        0.0000000000000000     
   0.0000000000000000       0.22222222000000000        0.0000000000000000     
[...]
 CELL_DATA         354
 SCALARS U float
 LOOKUP_TABLE default
    0.31395868623159844425E-02
    0.31877134551977208410E-01
    0.52351312385487847045E-01
    0.22548247510152952255E+00
    0.38022224565706307618E-02
    0.91530041113695673888E-02
    0.10843290607306421691E+00
    0.90191221755716970143E-02
    0.15094231595712220839E+00
    0.25561571737349569888E+00
    0.45941786028509967732E+00
    0.44443887976170948217E+00
    0.53475347020639774076E+00
    0.59138367977884498394E+00
    0.56985496601218099677E+00
    0.56303736259946690623E+00
    0.35526889574392578330E+00
    0.18159704430673268005E+00
    0.34485936759641469540E-01
    0.11986229152992515512E+00
    0.31871964088015555805E-01
    0.29032227413542600197E-01
    0.11326572195192935455E+00
    0.33314285920101278926E-01
    0.11469780526278082478E+00
    0.79278465443712559102E-01
    0.53829363189823502267E-01
    0.73799937933810941249E-01
    0.53637765478415075360E-01
    0.10330858901891832105E-01
    0.66013210347892481433E-02
    0.10298439616484439396E-01
    0.69505977012769455670E-02
    0.57321920721563968462E-02
    0.11257432933417224966E-01
    0.93916685693841116256E-02
    0.23307457938058488700E-01
    0.12162564793600781285E-01
    0.31157298348248791721E-02
    0.40479245932514970260E-02
    0.24674947168492576688E-02
    0.17865491705294530948E-02
    0.21027379092277164764E-02
    0.17701626928828691730E-02
    0.22488547432350371007E-02
    0.11711150804233894356E-02
    0.44258752836237556794E-02
    0.18985976252051711861E-02
    0.23767220792857732953E-01
    0.66948563058312038354E-01
    0.16334417107252457990E+00
    0.95267725923575963254E-01
    0.30175319118703361303E-02
    0.42831284883901565288E-03
    0.34825425514783655070E-02
    0.41438363517483860861E-03
    0.34813309814851014536E-02
    0.21203746644387366262E-02
    0.40318191052978015823E-02
    0.21213361630852472714E-02
    0.40397497586627615501E-02
    0.26106795351897547908E-02
    0.39974214540143410135E-02
    0.28382171490211414305E-02
    0.98640287295021500391E-02
    0.13731247881416518142E-01
    0.43838338699161261136E-01
    0.41719286307747550924E-01
    0.57762242520830309189E+00
    0.84209688573671392930E+00
    0.87626129374075834022E+00
    0.72302239989458472191E+00
    0.87797787085105571947E+00
    0.81567309161382106630E+00
    0.85135837120011892409E+00
    0.81122028259881739931E+00
    0.84085746782407844169E+00
    0.87367940247298647716E+00
    0.35178297515300616105E+00
    0.63612447003867400586E+00
    0.10362458298441087901E+00
    0.24551400019769248351E+00
    0.70984354811435801391E+00
    0.11702781807779094603E+00
    0.55926919978652267496E+00
    0.50520722758805848562E-01
    0.20237028729075730998E-01
    0.32096745998255193921E+00
    0.47196025880664616015E+00
    0.18986099123425007051E+00
    0.28863507095469708580E-01
    0.16428589258133907691E+00
    0.19022761997546752677E+00
    0.39739223667174680688E-01
    0.35570073656796721839E-01
    0.35205892854544472426E-01
    0.31361786355446885644E+00
    0.71588664823557746075E+00
    0.83907837946746544056E+00
    0.86353352481726963763E+00
    0.86308802772195591935E+00
    0.80497120460015902932E+00
    0.86525338896880144013E+00
    0.32899574512247808933E+00
    0.28153958022757635815E+00
    0.73673129469727385854E-01
    0.79448099500817687124E-01
    0.42831032068744262498E+00
    0.42147602911511483637E+00
    0.28675829754541243277E+00
    0.39306109138488164179E-01
    0.16431732991990224968E+00
    0.44212526764245467514E-01
    0.47692218681439066397E-01
    0.80270829738394700037E+00
    0.12993210260296106373E+00
    0.34714051322408334688E+00
    0.64119314048030484621E+00
    0.69567461293639853981E+00
    0.13688034821172534450E+00
    0.26510261141323598899E+00
    0.87089740702204609252E-02
    0.12943483941138171286E-01
    0.14287670571599827077E-01
    0.21706321921617480891E-01
    0.39766124603629673939E-01
    0.10397128025204151539E-01
    0.11863583783647987241E-01
    0.33957656404435473951E-01
    0.28602900743571568754E+00
    0.33397366222319480045E-01
    0.44577341682591831162E+00
    0.24591234220612490091E+00
    0.30807835264192614394E-01
    0.41501626023359126927E-01
    0.68299193697797255798E+00
    0.84249150369063463550E+00
    0.35290599013371176662E+00
    0.82520534496677711012E+00
    0.75696979182755030902E+00
    0.66287440767252137075E+00
    0.36574215476713195505E+00
    0.66063675510353338238E-02
    0.61973109630702712461E-02
    0.63442830180092842085E-02
    0.10933916356637894685E-01
    0.67758476744125880481E-02
    0.53719765549764732920E-02
    0.57028363766088536677E-02
    0.78244426492663099459E+00
    0.54711327916645191571E+00
    0.22801125768986563180E+00
    0.60209169980727150762E+00
    0.18500507821602599212E+00
    0.76803259934690581989E+00
    0.87393305526041120679E+00
    0.87068358975576587433E+00
    0.84742880839197698428E+00
    0.89846930619935050366E+00
    0.88563298335112061732E+00
    0.75922218553737685909E+00
    0.84449471514129825778E+00
    0.87702674833858407233E+00
    0.86527102697485525074E+00
    0.84730779806170608559E+00
    0.94883701047838754639E-02
    0.22462078392792142467E-01
    0.86954992368024758287E-02
    0.17401766183650722170E-01
    0.24296556385151279328E-01
    0.76568004166795589072E+00
    0.81760741483758903048E+00
    0.87599752465055147344E+00
    0.81864532442463899820E+00
    0.86299019335375493078E+00
    0.35212391729006364827E-01
    0.29752322878938891604E+00
    0.31747997967190333402E+00
    0.32179303712974352547E-01
    0.57414157582123322154E-01
    0.72881339854771065578E+00
    0.69452193122100802647E+00
    0.83706536347190940717E+00
    0.65672860491989415443E+00
    0.86224860765871480517E+00
    0.78653583200486348881E-01
    0.41180276742920129962E+00
    0.11206560247830352206E+00
    0.85301460990930000339E-01
    0.36743586997476640477E+00
    0.63514627043666849193E+00
    0.70364692630985070654E+00
    0.41113239774025395201E+00
    0.83111232603505980077E+00
    0.25136419013471011930E+00
    0.13294103513352709123E-01
    0.10151046475922491374E+00
    0.17653294818574943870E-01
    0.12306076328719078861E-01
    0.20655394752306606432E-01
    0.38086784186607235136E-02
    0.52944674342054291738E-02
    0.58109971739469584370E-02
    0.27550389689674856936E-02
    0.54355039470756179656E-02
    0.29269728489198416216E-01
    0.33478753700481067579E+00
    0.66774710536211825951E-01
    0.48809027053698006426E+00
    0.34278874839905826288E+00
    0.67715986491848934037E+00
    0.53724533538211238781E+00
    0.87228866534618743067E+00
    0.86156307733949377692E+00
    0.88093608852029992029E+00
    0.84685768662479044000E+00
    0.83866614121649540881E+00
    0.87797489711879539431E+00
    0.85402844482472539678E+00
    0.36045323919251061329E-01
    0.30587663251646687174E-02
    0.86203339945785401738E-02
    0.73673311313067268991E+00
    0.10618623279479626198E+00
    0.50968921655688226302E+00
    0.30625210230615087723E-02
    0.38045251621163147376E-02
    0.57515245436150132935E-02
    0.12503519869356997246E-01
    0.66606638560454227427E-02
    0.61505673927990641217E-02
    0.15042513261201286706E-01
    0.30575872581800812855E-01
    0.12728943797235012236E+00
    0.23841555112048617993E+00
    0.48290907783204733983E+00
    0.60017767627553064713E+00
    0.83943781264212746773E+00
    0.76590208604261056369E+00
    0.25174015661584941972E+00
    0.68992168831395783712E+00
    0.68310836374833194817E+00
    0.91064232632950770086E-01
    0.11047719101171984968E+00
    0.72699408498583273364E+00
    0.83573733669027472359E+00
    0.18063497518580422935E-01
    0.41529144239073412584E-02
    0.59776123619665368081E-02
    0.14600258666026827425E+00
    0.56013598874560957888E-02
    0.38937893651614595945E-02
    0.68628463840567255350E+00
    0.52175345290544561383E+00
    0.11884664256666950533E+00
    0.77651613738591473979E+00
    0.34437699402626653633E+00
    0.28827373982128801089E+00
    0.40789800800349891585E-01
    0.16887358934795045073E-01
    0.12065353655702912988E-01
    0.68043512658184479580E+00
    0.86835981023366737297E+00
    0.58882470986069490593E+00
    0.12034756693455432586E-01
    0.65186069946514008794E-02
    0.76669707101714454703E-02
    0.75768902485331005373E-02
    0.45245029262154755345E-02
    0.62849764177467688786E-02
    0.80575609797010605551E+00
    0.20024257709371301450E+00
    0.63162201608810930598E+00
    0.79810265263079926967E+00
    0.34932054231618830942E+00
    0.84781752129473675339E+00
    0.87833663052558597073E+00
    0.71542309606588938564E+00
    0.10027964703852439154E+00
    0.66481351668092036888E+00
    0.56851837705845631454E+00
    0.10392446991005377388E+00
    0.49988634048706986901E+00
    0.33366094646829164150E+00
    0.39150025379290132044E-01
    0.86539803016070204755E+00
    0.84910303662709041284E+00
    0.34148405315220300982E-02
    0.11355160759526588751E-01
    0.13249292879049218152E-01
    0.12907726556516575453E-01
    0.27992051489295433075E+00
    0.65298227881960768659E-01
    0.66501528959582818443E-02
    0.68453543910702600514E-02
    0.63985661328613829824E+00
    0.50078139326623832828E-01
    0.32771386170930824622E-01
    0.56687879543608254984E+00
    0.12238734948183449536E-01
    0.66585471314416488919E+00
    0.13552939527386692609E+00
    0.77502354362407590779E-02
    0.73578227626702963349E+00
    0.81633576421049602878E+00
    0.89246035615961649690E+00
    0.30162066037889712078E+00
    0.83160224827960882443E+00
    0.12170981985806317641E-01
    0.13833920086160821084E-01
    0.22130388020522145931E+00
    0.61778676862908943335E+00
    0.83029940807701874128E+00
    0.27817440579496855585E-01
    0.84439902325377169667E+00
    0.89908609284381924009E+00
    0.11668751135329717694E-01
    0.27620976526443127147E-01
    0.14066206642591983465E-02
    0.22958462395095558927E-03
    0.18405075680363353237E-02
    0.16569155335922021769E-03
    0.62316164708306122366E-01
    0.74104915601192547503E-01
    0.34032722423118799693E+00
    0.21357037244874838011E+00
    0.21983599124746036786E-02
    0.93033937381484712453E-02
    0.89881396842934502267E-01
    0.21305975591594383811E+00
    0.24355489194300325440E+00
    0.18112407019062864988E+00
    0.23116926915289433969E-01
    0.21756673642170089268E-03
    0.27127884620209349051E-03
    0.19950538596685620809E-03
    0.11015214599948368714E-03
    0.90001219531011459989E-04
    0.58530801932019072518E-03
    0.63324547428135775223E-02
    0.11241687624462773365E-01
    0.11012377049141597318E-02
    0.12713942080686663726E-03
    0.32125843640470522601E-03
    0.16102090317572988632E-02
    0.31552130920246793111E-01
    0.14657125627050701655E+00
    0.25608375291178965089E-04
    0.28980020674173187503E-05
    0.25229047503007150048E-05
    0.15861130535759352306E-04
    0.21059906470066654420E-03
    0.79417192864485140757E-02
    0.62959699109784481030E-01
