# vtk DataFile Version 3.0
LAPLACIEN  2D
ASCII
DATASET UNSTRUCTURED_GRID
 POINTS         391  float
  0.50371505999999999       0.50367786999999997        0.0000000000000000     
  0.29013556000000001       0.29014535000000002        0.0000000000000000     
  0.70165584999999997       0.71206597999999999        0.0000000000000000     
  0.70304188999999995       0.30176619999999998        0.0000000000000000     
  0.30920671999999999       0.71149227999999998        0.0000000000000000     
  0.79044983999999996       0.49884783999999999        0.0000000000000000     
  0.49102621000000002       0.20968644000000000        0.0000000000000000     
  0.49912957000000002       0.77208717000000004        0.0000000000000000     
  0.21724072999999999       0.48989389000000000        0.0000000000000000     
  0.83255933999999998       0.83046598000000005        0.0000000000000000     
  0.16646774000000000       0.17015694000000001        0.0000000000000000     
  0.83054514999999995       0.16736480000000001        0.0000000000000000     
  0.16953130999999999       0.83265739000000005        0.0000000000000000     
  0.42166445000000002       0.36345201999999999        0.0000000000000000     
  0.64462200999999997       0.56347807999999999        0.0000000000000000     
  0.35324633999999999       0.56311191000000005        0.0000000000000000     
  0.65456411000000003       0.84856860999999995        0.0000000000000000     
  0.35141477999999998       0.15563974000000000        0.0000000000000000     
  0.15290967000000000       0.35206625000000003        0.0000000000000000     
  0.82942241000000005       0.34936866000000000        0.0000000000000000     
  0.84390527000000004       0.64441694999999999        0.0000000000000000     
  0.63699174999999997       0.14284276000000001        0.0000000000000000     
  0.15620682999999999       0.64648446999999998        0.0000000000000000     
  0.36426062999999997       0.85756310999999996        0.0000000000000000     
  0.63489340999999999       0.40519052000000000        0.0000000000000000     
  0.52518872999999999       0.65957078000000002        0.0000000000000000     
  0.32158959999999998       0.42298103999999997        0.0000000000000000     
  0.58861710000000000       0.31711036999999997        0.0000000000000000     
  0.42078418000000001       0.69497151999999995        0.0000000000000000     
  0.48608786999999998       0.89334152000000000        0.0000000000000000     
   9.7084320000000002E-002  0.50000000000000000        0.0000000000000000     
  0.90291568000000000       0.50000000000000000        0.0000000000000000     
  0.51392453000000005       0.10668648999999999        0.0000000000000000     
  0.59792566999999996       0.73122754000000001        0.0000000000000000     
  0.74510058999999995       0.41124730999999998        0.0000000000000000     
  0.73212551999999997       0.90191560000000004        0.0000000000000000     
   9.7784830000000003E-002  0.26957329000000002        0.0000000000000000     
  0.26711221000000002        9.8671499999999995E-002   0.0000000000000000     
  0.90191560000000004       0.26787448000000003        0.0000000000000000     
  0.90118569000000004       0.73039821000000005        0.0000000000000000     
  0.73122947000000005        9.8017859999999998E-002   0.0000000000000000     
   9.8084400000000002E-002  0.73212551999999997        0.0000000000000000     
  0.26957329000000002       0.90221516999999996        0.0000000000000000     
  0.39283522999999998       0.25360379000000000        0.0000000000000000     
  0.74480864000000002       0.60495284999999999        0.0000000000000000     
  0.25505132000000003       0.60593640999999998        0.0000000000000000     
  0.52159297999999998       0.40671636000000000        0.0000000000000000     
  0.40768852000000000       0.47699891000000000        0.0000000000000000     
   9.1467049999999994E-002   9.1876959999999994E-002   0.0000000000000000     
  0.90842484999999995       0.90819225000000003        0.0000000000000000     
  0.90820104999999995        9.1566729999999999E-002   0.0000000000000000     
   9.1807449999999999E-002  0.90843574000000005        0.0000000000000000     
  0.27098960000000000       0.20527094000000001        0.0000000000000000     
  0.73457293999999995       0.79835387000000002        0.0000000000000000     
  0.79817773000000003       0.25713470999999999        0.0000000000000000     
  0.20747797000000001       0.72863946000000002        0.0000000000000000     
  0.20175195000000001       0.27583914999999998        0.0000000000000000     
  0.79603889000000005       0.72159035000000005        0.0000000000000000     
  0.71761666000000002       0.19748431999999999        0.0000000000000000     
  0.28462607000000001       0.80251899999999998        0.0000000000000000     
  0.69134598999999997       0.49261972999999998        0.0000000000000000     
  0.44720578999999999       0.58582935999999997        0.0000000000000000     
  0.24242269999999999       0.37228174000000003        0.0000000000000000     
  0.38265623999999998       0.93072131999999996        0.0000000000000000     
  0.60971754000000000       0.91988369000000003        0.0000000000000000     
   7.9163609999999995E-002  0.60979116000000000        0.0000000000000000     
  0.92010649000000000       0.61081183999999999        0.0000000000000000     
  0.61954008999999999        7.1530830000000004E-002   0.0000000000000000     
  0.91882012999999996       0.38917363999999999        0.0000000000000000     
  0.39086346000000000        8.0652249999999995E-002   0.0000000000000000     
   7.9183480000000001E-002  0.38966213000000000        0.0000000000000000     
  0.59114111999999996       0.49294315000000000        0.0000000000000000     
  0.63337980999999999       0.64485914000000000        0.0000000000000000     
  0.50012352000000004       0.29676539000000002        0.0000000000000000     
  0.82552601000000003       0.92753492000000004        0.0000000000000000     
  0.92774772999999999       0.82498556999999995        0.0000000000000000     
   7.1970870000000006E-002  0.17510291000000000        0.0000000000000000     
  0.17422821999999999        7.2635640000000001E-002   0.0000000000000000     
  0.82510813000000005        7.2134840000000006E-002   0.0000000000000000     
  0.92754665000000003       0.17446275999999999        0.0000000000000000     
  0.17501022999999999       0.92789951999999998        0.0000000000000000     
   7.2464680000000004E-002  0.82554053000000005        0.0000000000000000     
  0.30731587999999999       0.50885354999999999        0.0000000000000000     
  0.59033407999999998       0.22171178999999999        0.0000000000000000     
  0.40109191999999999       0.78725542000000004        0.0000000000000000     
  0.35420917000000002       0.63754104000000000        0.0000000000000000     
  0.15983976999999999       0.56665573000000002        0.0000000000000000     
  0.84108459999999996       0.56757886999999996        0.0000000000000000     
  0.83902096000000004       0.43344338999999998        0.0000000000000000     
  0.43230028999999998       0.16004268999999999        0.0000000000000000     
  0.57536027999999995       0.83041363999999995        0.0000000000000000     
  0.15771898000000001       0.42747892999999998        0.0000000000000000     
  0.34021692999999997       0.34221559000000001        0.0000000000000000     
  0.56002271999999997       0.57501117999999996        0.0000000000000000     
  0.65344329000000001       0.78147597999999996        0.0000000000000000     
   0.0000000000000000        0.0000000000000000        0.0000000000000000     
   1.0000000000000000        0.0000000000000000        0.0000000000000000     
   1.0000000000000000        1.0000000000000000        0.0000000000000000     
   0.0000000000000000        1.0000000000000000        0.0000000000000000     
  0.11111111000000000        0.0000000000000000        0.0000000000000000     
  0.22222222000000000        0.0000000000000000        0.0000000000000000     
  0.33333332999999998        0.0000000000000000        0.0000000000000000     
  0.44444444000000000        0.0000000000000000        0.0000000000000000     
  0.55555555999999995        0.0000000000000000        0.0000000000000000     
  0.66666667000000002        0.0000000000000000        0.0000000000000000     
  0.77777777999999997        0.0000000000000000        0.0000000000000000     
  0.88888889000000004        0.0000000000000000        0.0000000000000000     
   1.0000000000000000       0.11111111000000000        0.0000000000000000     
   1.0000000000000000       0.22222222000000000        0.0000000000000000     
   1.0000000000000000       0.33333332999999998        0.0000000000000000     
   1.0000000000000000       0.44444444000000000        0.0000000000000000     
   1.0000000000000000       0.55555555999999995        0.0000000000000000     
   1.0000000000000000       0.66666667000000002        0.0000000000000000     
   1.0000000000000000       0.77777777999999997        0.0000000000000000     
   1.0000000000000000       0.88888889000000004        0.0000000000000000     
  0.88888889000000004        1.0000000000000000        0.0000000000000000     
  0.77777777999999997        1.0000000000000000        0.0000000000000000     
  0.66666667000000002        1.0000000000000000        0.0000000000000000     
  0.55555555999999995        1.0000000000000000        0.0000000000000000     
  0.44444444000000000        1.0000000000000000        0.0000000000000000     
  0.33333332999999998        1.0000000000000000        0.0000000000000000     
  0.22222222000000000        1.0000000000000000        0.0000000000000000     
  0.11111111000000000        1.0000000000000000        0.0000000000000000     
   0.0000000000000000       0.11111111000000000        0.0000000000000000     
   0.0000000000000000       0.22222222000000000        0.0000000000000000     
[...]
 CELL_DATA         354
 SCALARS U float
 LOOKUP_TABLE default
    0.13428738405379832488E-06
    0.35727972048397565455E-03
    0.18757006375246363012E-05
    0.10197593345168014378E-04
    0.16979699532897597987E-06
    0.28049876874766616817E-04
    0.22206211184690270027E-03
    0.51795929438132443079E-04
    0.29060405972072703238E-03
    0.67153063210094628144E-03
    0.88539531221712788629E-03
    0.99191255681322179107E-03
    0.11892399380101872398E-02
    0.11475483531026503883E-02
    0.12879001915593369949E-02
    0.10803856762768451836E-02
    0.71483725102615847807E-03
    0.29415490461944633020E-03
    0.40743559351355963360E-03
    0.26953504931587207857E-03
    0.31605726123350651961E-03
    0.38725226742022228997E-03
    0.52068158658990257130E-03
    0.20020650962282760823E-03
    0.45277651465886695897E-03
    0.19517598770827206470E-03
    0.26016457209822600911E-03
    0.32286896835652465886E-03
    0.86308809656583329270E-04
    0.88077868560045819666E-05
    0.30386248771282025035E-06
    0.50176801083569658264E-06
    0.32321661656426959123E-06
    0.27828611340120644060E-06
    0.55236719422276024306E-06
    0.43645973354027855218E-06
    0.68008532933798350393E-06
    0.41609315260391581811E-06
    0.14236211151632576133E-06
    0.17923751572047121084E-06
    0.11873502315896030566E-06
    0.85397727426807511396E-07
    0.10222348435791199540E-06
    0.85398094327846568857E-07
    0.10714847629547798784E-06
    0.57231068055126320264E-07
    0.21061938463707683080E-06
    0.78966087946787678406E-07
    0.86071271366496356311E-06
    0.27127036216667553163E-05
    0.72730568667196009687E-05
    0.40528000961558361735E-05
    0.12972317326275549176E-06
    0.31547374419733404086E-07
    0.16415241957599951452E-06
    0.32377729113910363987E-07
    0.16315078199093558900E-06
    0.10829423670996854991E-06
    0.16366604281641029554E-06
    0.10829787180008493179E-06
    0.16366036929405567960E-06
    0.12467249511551876552E-06
    0.18264947316254284834E-06
    0.13052408179138022308E-06
    0.39172886219667001480E-06
    0.45146663931161546983E-06
    0.18479266623382645851E-05
    0.16703190613847246138E-05
    0.55195716640462581110E-03
    0.12688139117924741341E-02
    0.10315605914684815563E-02
    0.94374585035838728670E-03
    0.13205747930217545238E-02
    0.12222176107953397050E-02
    0.10001152936248902323E-02
    0.74080535662331343291E-03
    0.91204385448486835573E-03
    0.15833057344727897910E-02
    0.27377246781428219271E-03
    0.30137332703624418462E-03
    0.11330420840990486461E-03
    0.75854724386007160806E-04
    0.51398133550473483130E-03
    0.90542293141113923426E-04
    0.63793965090192092295E-03
    0.25057445926848754235E-03
    0.15969606533599043132E-05
    0.65614891961299161207E-03
    0.54155086295043335098E-03
    0.45015776465201625886E-03
    0.32787011147604710592E-03
    0.18756329695820549586E-03
    0.85248822885447917086E-05
    0.11522640128504306787E-05
    0.97753935055283402772E-06
    0.37102071437349199184E-05
    0.19255432884359403802E-03
    0.79172840777874090197E-03
    0.11133979676246524067E-02
    0.94815291484978421032E-03
    0.13578313912586317119E-02
    0.81998303629145187152E-03
    0.12774852014837512031E-02
    0.79996182060159423764E-03
    0.69734802088744322901E-03
    0.26401775165697512291E-03
    0.36861242677426017851E-03
    0.51228854785508438994E-03
    0.40014814642002808449E-03
    0.16443803502863980600E-03
    0.95343186096436628603E-06
    0.67213663926123641090E-04
    0.59685298749945465502E-05
    0.23834044444869058201E-05
    0.64812271644198971802E-03
    0.19661794090276645767E-03
    0.22248656914534474202E-03
    0.21595895478911965575E-03
    0.40621395642589496616E-03
    0.39132323415755694465E-05
    0.21989325645683008683E-03
    0.39617858130707769220E-06
    0.61224787926796382471E-06
    0.66451475781231201815E-06
    0.87515412913785487103E-06
    0.11668098883110432778E-05
    0.45141743178469391632E-06
    0.55737759954345411990E-06
    0.21393989101363511960E-03
    0.25617353734156171011E-03
    0.48577552717072440840E-04
    0.47364152527190324458E-03
    0.34392336050679205538E-03
    0.26920389357028629750E-05
    0.12598856180283176808E-03
    0.10288637348760342437E-02
    0.13122052923664096098E-02
    0.67093616064996925395E-03
    0.11814351544014135235E-02
    0.79216963689378425053E-03
    0.88223616783725603008E-03
    0.74072404541536006253E-03
    0.31622815357891545780E-06
    0.31503061986401538017E-06
    0.32867655652800042590E-06
    0.50854215083573658834E-06
    0.34369423920571365132E-06
    0.27153265219944336558E-06
    0.28531542930489999664E-06
    0.74301802827828197177E-03
    0.60787996012184766607E-03
    0.35289706439916630363E-03
    0.83611304906320779717E-03
    0.35631218296013067448E-03
    0.96397819549600056478E-03
    0.93896797497576751663E-03
    0.13511269419194554299E-02
    0.11091074621085534810E-02
    0.93062656327797584760E-03
    0.15009881293417835692E-02
    0.39096457019302928654E-03
    0.93639328035091207256E-03
    0.70409291446846559905E-03
    0.38016923569261887620E-03
    0.39422649504333045524E-03
    0.40413034943963429476E-06
    0.86562563970537575181E-06
    0.36851664808447330938E-06
    0.69779150927203757284E-06
    0.10615698642515195305E-05
    0.83202246411654475367E-03
    0.12284859137934754300E-02
    0.10120875636333271329E-02
    0.13149677663078784828E-02
    0.11931170610761493954E-02
    0.99609172747927590360E-04
    0.13882761773430978090E-03
    0.22319808092004957806E-03
    0.11832121227984041499E-03
    0.10226604686832246871E-03
    0.10163592790471012803E-02
    0.99989682598907109537E-03
    0.11426760021022125229E-02
    0.76212492999759671054E-03
    0.11712529759912318570E-02
    0.70473675425896718338E-04
    0.31290284957954521720E-03
    0.19634841946801657330E-04
    0.83891037742877833799E-04
    0.19814114181041761519E-03
    0.60991444296125798055E-03
    0.74909349062860549739E-03
    0.20502178688308386658E-03
    0.57807560996631589777E-03
    0.75888363113237546531E-04
    0.55849745837174372407E-06
    0.27246880211276241444E-05
    0.76071933129078557071E-06
    0.51406283652031471341E-06
    0.85516994261985998327E-06
    0.18627870512380822367E-06
    0.26845810298067998308E-06
    0.29364473132309641335E-06
    0.13667246055457935948E-06
    0.30174445729950917794E-06
    0.39961514199363627544E-05
    0.65249775240670013308E-03
    0.26494969254674250164E-03
    0.66148961750052859710E-03
    0.66940962252241137387E-03
    0.34579452422569818652E-03
    0.26141010794362404311E-03
    0.69377433919331999920E-03
    0.41768344905754480317E-03
    0.97446381247752705389E-03
    0.13848027163177165956E-02
    0.83690506223991502875E-03
    0.82875258806711950537E-03
    0.15074957622439270205E-02
    0.38034710885386822827E-05
    0.81366335527890480388E-07
    0.22180323934293456103E-06
    0.52885606723369513963E-03
    0.10233949233285031399E-04
    0.20303130231630361121E-03
    0.14458394295874832868E-06
    0.17790404795646038049E-06
    0.31466994287412100734E-06
    0.50889192399854611157E-06
    0.28428632974543752363E-06
    0.26627705798569450820E-06
    0.80495007552676616248E-06
    0.19440125949810052272E-03
    0.44983389712637304129E-03
    0.39453616769853509013E-03
    0.54166084012956694938E-03
    0.63195975086244315661E-03
    0.98502260720061650401E-03
    0.10581575542876462716E-02
    0.76969409023286091721E-03
    0.97164381504098609830E-03
    0.50827930246377054507E-03
    0.52218417925387595698E-04
    0.51461697203581896281E-04
    0.10415067706725294680E-02
    0.95570909942144948758E-03
    0.69035016875045664446E-06
    0.19550524269997829373E-06
    0.26760205414767842121E-06
    0.31680136518709650986E-03
    0.17849150255531569714E-04
    0.18570970710479548124E-06
    0.47135870456851513936E-03
    0.76139801997576858801E-03
    0.19763262262569231738E-03
    0.89699280088347108000E-03
    0.57764189781455766489E-03
    0.57356875409495216688E-03
    0.91812608693780154670E-05
    0.60737147763592233237E-04
    0.55879965754999021959E-06
    0.79452404545301180856E-03
    0.10935987018410510841E-02
    0.86607313481325851143E-03
    0.54707674905665142819E-06
    0.29805946003785809464E-06
    0.36078379182480449264E-06
    0.38359332956904516606E-06
    0.22662891570998044221E-06
    0.31655479339369994263E-06
    0.78881125525968095319E-03
    0.68802784454628795625E-03
    0.98127283303091122554E-03
    0.13731936722538497925E-02
    0.28666211084390905758E-03
    0.86593941781479841571E-03
    0.47168745094712402838E-03
    0.40300197323557307742E-03
    0.26935011280710622399E-05
    0.40217356378491710741E-03
    0.20586074902117639266E-03
    0.33261678449096984027E-05
    0.75125798324537180692E-03
    0.67939660515865980817E-03
    0.25949432937791429938E-03
    0.12491819631739115373E-02
    0.92540673396732185240E-03
    0.18134510748691680961E-05
    0.46382438835856275262E-04
    0.55511325850238382911E-06
    0.63634990850196510603E-06
    0.28012441570350539487E-03
    0.40215859615541892915E-03
    0.32404030890079305715E-06
    0.33260755780208534635E-06
    0.41592377276922990869E-03
    0.24400091443592701932E-04
    0.88716874887608156283E-04
    0.64930742402594901919E-03
    0.57771204830339944004E-06
    0.24905536528325175963E-03
    0.43903807682301370990E-03
    0.41902355164640087836E-06
    0.10493565171608495046E-02
    0.52572576373328678938E-03
    0.13013795646668593550E-02
    0.21188033492227647419E-03
    0.10551979492382308930E-02
    0.49189560814179686928E-06
    0.56852893722908173286E-06
    0.49061310509091425602E-03
    0.70193770587519783641E-03
    0.10490385049129525609E-02
    0.10015658008742504316E-03
    0.11941330830532047216E-02
    0.10140692840082084821E-02
    0.79854589127282600168E-04
    0.49333257379825951603E-04
    0.73856404497963356887E-07
    0.17030938087202113581E-07
    0.35068744824026242424E-03
    0.15668263521270452644E-05
    0.24090329963349117268E-05
    0.25532813770414015638E-05
    0.15179057011895514661E-04
    0.94619690985230239192E-05
    0.27706855368856096722E-04
    0.12737164729232839083E-03
    0.63964631891698473399E-03
    0.16605624407558061770E-02
    0.20100774588960668501E-02
    0.10733528584015398100E-02
    0.11085410693018564595E-03
    0.88647802861303821726E-06
    0.29809404086123244344E-04
    0.18791651286917557874E-05
    0.56907734057289749638E-05
    0.10485605919593242377E-07
    0.32533863437296195562E-07
    0.27084624958180190967E-06
    0.37380489505185365708E-06
    0.45384093371860325986E-07
    0.99723361850205494211E-08
    0.17335388795257238436E-07
    0.57323086272776568760E-07
    0.10584113498571870550E-05
    0.59415413156320812275E-05
    0.99354285329767216763E-08
    0.99181426882167897060E-08
    0.99205599879177221890E-08
    0.99323485399273028629E-08
    0.15779875738221314304E-07
    0.27386129923782625050E-06
    0.25033483590978407849E-05
