# vtk DataFile Version 3.0
LAPLACIEN  2D
ASCII
DATASET UNSTRUCTURED_GRID
 POINTS         391  float
  0.50371505999999999       0.50367786999999997        0.0000000000000000     
  0.29013556000000001       0.29014535000000002        0.0000000000000000     
  0.70165584999999997       0.71206597999999999        0.0000000000000000     
  0.70304188999999995       0.30176619999999998        0.0000000000000000     
  0.30920671999999999       0.71149227999999998        0.0000000000000000     
  0.79044983999999996       0.49884783999999999        0.0000000000000000     
  0.49102621000000002       0.20968644000000000        0.0000000000000000     
  0.49912957000000002       0.77208717000000004        0.0000000000000000     
  0.21724072999999999       0.48989389000000000        0.0000000000000000     
  0.83255933999999998       0.83046598000000005        0.0000000000000000     
  0.16646774000000000       0.17015694000000001        0.0000000000000000     
  0.83054514999999995       0.16736480000000001        0.0000000000000000     
  0.16953130999999999       0.83265739000000005        0.0000000000000000     
  0.42166445000000002       0.36345201999999999        0.0000000000000000     
  0.64462200999999997       0.56347807999999999        0.0000000000000000     
  0.35324633999999999       0.56311191000000005        0.0000000000000000     
  0.65456411000000003       0.84856860999999995        0.0000000000000000     
  0.35141477999999998       0.15563974000000000        0.0000000000000000     
  0.15290967000000000       0.35206625000000003        0.0000000000000000     
  0.82942241000000005       0.34936866000000000        0.0000000000000000     
  0.84390527000000004       0.64441694999999999        0.0000000000000000     
  0.63699174999999997       0.14284276000000001        0.0000000000000000     
  0.15620682999999999       0.64648446999999998        0.0000000000000000     
  0.36426062999999997       0.85756310999999996        0.0000000000000000     
  0.63489340999999999       0.40519052000000000        0.0000000000000000     
  0.52518872999999999       0.65957078000000002        0.0000000000000000     
  0.32158959999999998       0.42298103999999997        0.0000000000000000     
  0.58861710000000000       0.31711036999999997        0.0000000000000000     
  0.42078418000000001       0.69497151999999995        0.0000000000000000     
  0.48608786999999998       0.89334152000000000        0.0000000000000000     
   9.7084320000000002E-002  0.50000000000000000        0.0000000000000000     
  0.90291568000000000       0.50000000000000000        0.0000000000000000     
  0.51392453000000005       0.10668648999999999        0.0000000000000000     
  0.59792566999999996       0.73122754000000001        0.0000000000000000     
  0.74510058999999995       0.41124730999999998        0.0000000000000000     
  0.73212551999999997       0.90191560000000004        0.0000000000000000     
   9.7784830000000003E-002  0.26957329000000002        0.0000000000000000     
  0.26711221000000002        9.8671499999999995E-002   0.0000000000000000     
  0.90191560000000004       0.26787448000000003        0.0000000000000000     
  0.90118569000000004       0.73039821000000005        0.0000000000000000     
  0.73122947000000005        9.8017859999999998E-002   0.0000000000000000     
   9.8084400000000002E-002  0.73212551999999997        0.0000000000000000     
  0.26957329000000002       0.90221516999999996        0.0000000000000000     
  0.39283522999999998       0.25360379000000000        0.0000000000000000     
  0.74480864000000002       0.60495284999999999        0.0000000000000000     
  0.25505132000000003       0.60593640999999998        0.0000000000000000     
  0.52159297999999998       0.40671636000000000        0.0000000000000000     
  0.40768852000000000       0.47699891000000000        0.0000000000000000     
   9.1467049999999994E-002   9.1876959999999994E-002   0.0000000000000000     
  0.90842484999999995       0.90819225000000003        0.0000000000000000     
  0.90820104999999995        9.1566729999999999E-002   0.0000000000000000     
   9.1807449999999999E-002  0.90843574000000005        0.0000000000000000     
  0.27098960000000000       0.20527094000000001        0.0000000000000000     
  0.73457293999999995       0.79835387000000002        0.0000000000000000     
  0.79817773000000003       0.25713470999999999        0.0000000000000000     
  0.20747797000000001       0.72863946000000002        0.0000000000000000     
  0.20175195000000001       0.27583914999999998        0.0000000000000000     
  0.79603889000000005       0.72159035000000005        0.0000000000000000     
  0.71761666000000002       0.19748431999999999        0.0000000000000000     
  0.28462607000000001       0.80251899999999998        0.0000000000000000     
  0.69134598999999997       0.49261972999999998        0.0000000000000000     
  0.44720578999999999       0.58582935999999997        0.0000000000000000     
  0.24242269999999999       0.37228174000000003        0.0000000000000000     
  0.38265623999999998       0.93072131999999996        0.0000000000000000     
  0.60971754000000000       0.91988369000000003        0.0000000000000000     
   7.9163609999999995E-002  0.60979116000000000        0.0000000000000000     
  0.92010649000000000       0.61081183999999999        0.0000000000000000     
  0.61954008999999999        7.1530830000000004E-002   0.0000000000000000     
  0.91882012999999996       0.38917363999999999        0.0000000000000000     
  0.39086346000000000        8.0652249999999995E-002   0.0000000000000000     
   7.9183480000000001E-002  0.38966213000000000        0.0000000000000000     
  0.59114111999999996       0.49294315000000000        0.0000000000000000     
  0.63337980999999999       0.64485914000000000        0.0000000000000000     
  0.50012352000000004       0.29676539000000002        0.0000000000000000     
  0.82552601000000003       0.92753492000000004        0.0000000000000000     
  0.92774772999999999       0.82498556999999995        0.0000000000000000     
   7.1970870000000006E-002  0.17510291000000000        0.0000000000000000     
  0.17422821999999999        7.2635640000000001E-002   0.0000000000000000     
  0.82510813000000005        7.2134840000000006E-002   0.0000000000000000     
  0.92754665000000003       0.17446275999999999        0.0000000000000000     
  0.17501022999999999       0.92789951999999998        0.0000000000000000     
   7.2464680000000004E-002  0.82554053000000005        0.0000000000000000     
  0.30731587999999999       0.50885354999999999        0.0000000000000000     
  0.59033407999999998       0.22171178999999999        0.0000000000000000     
  0.40109191999999999       0.78725542000000004        0.0000000000000000     
  0.35420917000000002       0.63754104000000000        0.0000000000000000     
  0.15983976999999999       0.56665573000000002        0.0000000000000000     
  0.84108459999999996       0.56757886999999996        0.0000000000000000     
  0.83902096000000004       0.43344338999999998        0.0000000000000000     
  0.43230028999999998       0.16004268999999999        0.0000000000000000     
  0.57536027999999995       0.83041363999999995        0.0000000000000000     
  0.15771898000000001       0.42747892999999998        0.0000000000000000     
  0.34021692999999997       0.34221559000000001        0.0000000000000000     
  0.56002271999999997       0.57501117999999996        0.0000000000000000     
  0.65344329000000001       0.78147597999999996        0.0000000000000000     
   0.0000000000000000        0.0000000000000000        0.0000000000000000     
   1.0000000000000000        0.0000000000000000        0.0000000000000000     
   1.0000000000000000        1.0000000000000000        0.0000000000000000     
   0.0000000000000000        1.0000000000000000        0.0000000000000000     
  0.11111111000000000        0.0000000000000000        0.0000000000000000     
  0.22222222000000000        0.0000000000000000        0.0000000000000000     
  0.33333332999999998        0.0000000000000000        0.0000000000000000     
  0.44444444000000000        0.0000000000000000        0.0000000000000000     
  0.55555555999999995        0.0000000000000000        0.0000000000000000     
  0.66666667000000002        0.0000000000000000        0.0000000000000000     
  0.77777777999999997        0.0000000000000000        0.0000000000000000     
  0.88888889000000004        0.0000000000000000        0.0000000000000000     
   1.0000000000000000       0.11111111000000000        0.0000000000000000     
   1.0000000000000000       0.22222222000000000        0.0000000000000000     
   1.0000000000000000       0.33333332999999998        0.0000000000000000     
   1.0000000000000000       0.44444444000000000        0.0000000000000000     
   1.0000000000000000       0.55555555999999995        0.0000000000000000     
   1.0000000000000000       0.66666667000000002        0.0000000000000000     
   1.0000000000000000       0.77777777999999997        0.0000000000000000     
   1.0000000000000000       0.88888889000000004        0.0000000000000000     
  0.88888889000000004        1.0000000000000000        0.0000000000000000     
  0.77777777999999997        1.0000000000000000        0.0000000000000000     
  0.66666667000000002        1.0000000000000000        0.0000000000000000     
  0.55555555999999995        1.0000000000000000        0.0000000000000000     
  0.44444444000000000        1.0000000000000000        0.0000000000000000     
  0.33333332999999998        1.0000000000000000        0.0000000000000000     
  0.22222222000000000        1.0000000000000000        0.0000000000000000     
  0.11111111000000000        1.0000000000000000        0.0000000000000000     
   0.0000000000000000       0.11111111000000000        0.0000000000000000     
   0.0000000000000000       0.22222222000000000        0.0000000000000000     
[...]
 CELL_DATA         354
 SCALARS U float
 LOOKUP_TABLE default
    0.22059330273472236433E-02
    0.27245963850972970688E-01
    0.48845432215109708951E-01
    0.22121603329316461006E+00
    0.26601697051810506943E-02
    0.65631220015651223904E-02
    0.99778656130358286958E-01
    0.64679287389572837769E-02
    0.13549065259133774575E+00
    0.24358340829239907843E+00
    0.44860910947313531461E+00
    0.43475417526714021932E+00
    0.52492205025710325650E+00
    0.58551856443791072682E+00
    0.56480736551791443922E+00
    0.55808910160456337568E+00
    0.34595445812097086469E+00
    0.16737910342110648432E+00
    0.28560739211981413244E-01
    0.11137135345381170282E+00
    0.27244273059100144324E-01
    0.25000376734038414622E-01
    0.10586919560735073842E+00
    0.27052398629290767135E-01
    0.10724178057011184151E+00
    0.71207277355808645813E-01
    0.48331236097271433605E-01
    0.67951595235415010454E-01
    0.48196118271870043437E-01
    0.79648483549230424117E-02
    0.51683661937436571610E-02
    0.79434928313796889648E-02
    0.54160020185090333375E-02
    0.46051006767542567930E-02
    0.91738669921453512568E-02
    0.75452608155997680922E-02
    0.19678567281302156156E-01
    0.10125255322417031981E-01
    0.22938495722484835565E-02
    0.31509777677799955149E-02
    0.18372277640618856799E-02
    0.12343096384261386181E-02
    0.14887525620023687751E-02
    0.12236466640019370931E-02
    0.15831622816177624673E-02
    0.82605881871990985855E-03
    0.35511820181348022034E-02
    0.13594017472943918309E-02
    0.21471927214323976996E-01
    0.63128386001233938174E-01
    0.15748863935944454329E+00
    0.90806472947531635675E-01
    0.21312477484344747279E-02
    0.25662987560381707135E-03
    0.23906776627115981781E-02
    0.24851331172635367098E-03
    0.23901220585528012291E-02
    0.14875576204376869324E-02
    0.29356921197397248084E-02
    0.14880280913963080201E-02
    0.29402874841047174463E-02
    0.19187375898810383329E-02
    0.31564346537760806441E-02
    0.21009037841663818873E-02
    0.79887486590374152950E-02
    0.11178217550247135023E-01
    0.40104533611775482205E-01
    0.38197701704033096282E-01
    0.54894688427929416719E+00
    0.83641473132299060111E+00
    0.87497828955473511137E+00
    0.69841780458821001165E+00
    0.87659257295302683843E+00
    0.81378339649053543781E+00
    0.84516107793456063391E+00
    0.79772253341602805676E+00
    0.83758055171682721518E+00
    0.87622014075210974404E+00
    0.30021172835152742930E+00
    0.60838344601380600629E+00
    0.92132271799332879358E-01
    0.21359006187385154441E+00
    0.67352100562070560397E+00
    0.96312227494329494260E-01
    0.53692987563942451423E+00
    0.40907295516657331269E-01
    0.16665268088975070809E-01
    0.29666895615487565152E+00
    0.45887904108953270210E+00
    0.17199022382618861515E+00
    0.22852618224177109058E-01
    0.13846850642835131784E+00
    0.15854801233926907322E+00
    0.31978061217713210640E-01
    0.28766118989320153820E-01
    0.28337604536499270969E-01
    0.27526727159424591029E+00
    0.70263502220639173501E+00
    0.83520998692080605785E+00
    0.86317813039389079677E+00
    0.86197869779328506468E+00
    0.79342801713090482796E+00
    0.86480393982451009283E+00
    0.30282093916211255680E+00
    0.25667952431316948259E+00
    0.60699795455335228689E-01
    0.65058881940954799150E-01
    0.39448020888681140095E+00
    0.39038681775969508170E+00
    0.25346403959886465440E+00
    0.32449163255569020425E-01
    0.14286151614154743439E+00
    0.34648469966369735418E-01
    0.38681055577072714913E-01
    0.79440272073044526646E+00
    0.12148393194219828106E+00
    0.31003582492607834054E+00
    0.60805092205307165187E+00
    0.66686143524924124115E+00
    0.12679795544535168994E+00
    0.23177154983388548182E+00
    0.68715323791243261911E-02
    0.10264128610257586618E-01
    0.11732253355392347274E-01
    0.17014774847179333500E-01
    0.33193061082461908229E-01
    0.83836147217392336523E-02
    0.95827054479334875664E-02
    0.27890734564778602717E-01
    0.25593976608177065879E+00
    0.27567208171520939108E-01
    0.41028175621616175262E+00
    0.21924818977633972472E+00
    0.25692516379906549240E-01
    0.32182893960198973027E-01
    0.66468911760046711645E+00
    0.83895982534028235023E+00
    0.32852823223878802050E+00
    0.81668689152657303332E+00
    0.74118218573144001304E+00
    0.63677740877546529230E+00
    0.34655983399163908798E+00
    0.51915713262965139732E-02
    0.49931893610254589680E-02
    0.50135448959680349937E-02
    0.85072377606297561875E-02
    0.52880571306634484643E-02
    0.41753848563351562972E-02
    0.44560218660104969346E-02
    0.77324279467360479412E+00
    0.51901619725051650889E+00
    0.20904771667319102524E+00
    0.58538699348345801798E+00
    0.16741376873746535714E+00
    0.75405711153406906888E+00
    0.87402483028428656908E+00
    0.86998105824716309709E+00
    0.84398990097982307113E+00
    0.89894921938405036865E+00
    0.88817102745223086568E+00
    0.74112594352645033702E+00
    0.84543368984679112543E+00
    0.87902046509565701093E+00
    0.86671085879371001504E+00
    0.83287532616397408347E+00
    0.69383408877300260797E-02
    0.17066433858849792277E-01
    0.62417522323254173017E-02
    0.12729357628672355665E-01
    0.18255450370103211422E-01
    0.75137614020430276707E+00
    0.80912194659449077072E+00
    0.87456311972440126112E+00
    0.81095614561289364186E+00
    0.85628886416290495021E+00
    0.26070426742776483392E-01
    0.26065793268720782727E+00
    0.28514390975655207194E+00
    0.24629744282812150724E-01
    0.43948869027487444394E-01
    0.70749064368652936352E+00
    0.67940804368489282616E+00
    0.83121702742421343935E+00
    0.64011534189427488073E+00
    0.85885756268004065372E+00
    0.67179899659282352187E-01
    0.37642360483840098251E+00
    0.92644971677404347465E-01
    0.70690867410142563254E-01
    0.33097857653064532979E+00
    0.60473093459382643022E+00
    0.67966685296173157127E+00
    0.37726560296324351818E+00
    0.81792585978022258608E+00
    0.22646067141705583659E+00
    0.10291079914288500663E-01
    0.91754864394935395366E-01
    0.13633256897274025760E-01
    0.93811363406275192350E-02
    0.15733770583101477913E-01
    0.28002429311469192140E-02
    0.42563386672359020818E-02
    0.45028882043185542924E-02
    0.20564628195259880908E-02
    0.40838109266087413429E-02
    0.23888995841332357623E-01
    0.31108503071078785762E+00
    0.54745852293285796053E-01
    0.45734366552023469898E+00
    0.32101104249354145415E+00
    0.65022661413870375124E+00
    0.51467341975195424197E+00
    0.87100833173868119630E+00
    0.85344560167513994209E+00
    0.87982410413164269247E+00
    0.84429699067182051309E+00
    0.83417378261692698427E+00
    0.87907119523428733920E+00
    0.85712310070455000055E+00
    0.30290144527175676126E-01
    0.19942502904674599094E-02
    0.61814754246261923581E-02
    0.71547652357952773450E+00
    0.93054349087510118688E-01
    0.47322710794422573333E+00
    0.21841258307000255626E-02
    0.26744142678518582727E-02
    0.42148024171364782686E-02
    0.91560294626434526183E-02
    0.48721006454249433937E-02
    0.44224745859886907540E-02
    0.11254370611068053448E-01
    0.23304731721708493719E-01
    0.10568619952947098939E+00
    0.21448881727415355924E+00
    0.45139581605557455024E+00
    0.58061082546449338526E+00
    0.83035358209250820227E+00
    0.75712321693751660767E+00
    0.23175740069042777280E+00
    0.67227043315711654259E+00
    0.64220423411586136098E+00
    0.80831558667794178863E-01
    0.89739536340208203580E-01
    0.70745272212523468980E+00
    0.82976900691025257117E+00
    0.13959964529993757268E-01
    0.30122331844512247045E-02
    0.46526336804456622578E-02
    0.13581738024929559949E+00
    0.38774854539331835360E-02
    0.26377715130328862649E-02
    0.66075616078098953210E+00
    0.49825707182133349704E+00
    0.10605504124474247896E+00
    0.76901513635230933641E+00
    0.32234718194290845616E+00
    0.26531104203924027463E+00
    0.33885848099219753604E-01
    0.13102910290014773212E-01
    0.96151811473125028962E-02
    0.65468670293071351551E+00
    0.86761276959203048609E+00
    0.57417807851302282707E+00
    0.94018923137680308899E-02
    0.50113773361327284411E-02
    0.60717058631188317724E-02
    0.60733917345038605437E-02
    0.36255639957034515967E-02
    0.50648203170190943950E-02
    0.80044149372694128886E+00
    0.18662703083184012387E+00
    0.61098605343902867570E+00
    0.78767465509556933156E+00
    0.32022285717887388756E+00
    0.84490806279900276810E+00
    0.87587203224848309002E+00
    0.69007681872075021801E+00
    0.90873662425880449844E-01
    0.63550022287220486739E+00
    0.52734136705036038784E+00
    0.93059865341575551123E-01
    0.48518264157204288312E+00
    0.30488196985810256390E+00
    0.32320645582401962004E-01
    0.86627386271229256387E+00
    0.84923698439773287472E+00
    0.23702195242375034660E-02
    0.81478693274355199622E-02
    0.10980903909151646519E-01
    0.10608583552415545154E-01
    0.25151181878926442970E+00
    0.54599579166932858676E-01
    0.53180656598705846813E-02
    0.54453664086683258375E-02
    0.61018320111244328530E+00
    0.40689038351140419114E-01
    0.25181796511506367858E-01
    0.54563815051798458811E+00
    0.95238022031881672952E-02
    0.63237620226643098675E+00
    0.12277152050318186627E+00
    0.59185109207712961049E-02
    0.71841322552262143475E+00
    0.80072560126818381754E+00
    0.89453687733072095867E+00
    0.27109862561941561188E+00
    0.82924887509873157487E+00
    0.88909362065792644364E-02
    0.10414198328574181263E-01
    0.19886119893063475272E+00
    0.59721336687095016860E+00
    0.82474402622074882707E+00
    0.21576887009240774268E-01
    0.84071061919677469998E+00
    0.89951802682059278649E+00
    0.81687390334837881728E-02
    0.20774222822895448137E-01
    0.93189361252423504479E-03
    0.13851025298058477738E-03
    0.12275127337039403157E-02
    0.96605771995009057573E-04
    0.59377242722774892236E-01
    0.69692952568020549720E-01
    0.33441772307638367723E+00
    0.20997951552993407431E+00
    0.14698596348611901036E-02
    0.80280697655492599257E-02
    0.81537107261586444507E-01
    0.20067335418752951792E+00
    0.23256980073246774632E+00
    0.17380739036143796894E+00
    0.20524581929311398742E-01
    0.14569765164870908522E-03
    0.20325000501471334260E-03
    0.15752257702178888471E-03
    0.82704725626638121477E-04
    0.61388157139607941798E-04
    0.41192336279997053290E-03
    0.50044705985168589160E-02
    0.93385944949770979123E-02
    0.76173528620800828610E-03
    0.72968377322152848516E-04
    0.19840621285340003703E-03
    0.11281279556965666255E-02
    0.28680658266292912567E-01
    0.13908361030654764479E+00
    0.14307486338766190444E-04
    0.12999853098171356616E-05
    0.11722951135646541220E-05
    0.87710474646590811868E-05
    0.15825679947826615203E-03
    0.65188798562301796327E-02
    0.57773858506182176886E-01
