# vtk DataFile Version 3.0
LAPLACIEN  2D
ASCII
DATASET UNSTRUCTURED_GRID
 POINTS         391  float
  0.50371505999999999       0.50367786999999997        0.0000000000000000     
  0.29013556000000001       0.29014535000000002        0.0000000000000000     
  0.70165584999999997       0.71206597999999999        0.0000000000000000     
  0.70304188999999995       0.30176619999999998        0.0000000000000000     
  0.30920671999999999       0.71149227999999998        0.0000000000000000     
  0.79044983999999996       0.49884783999999999        0.0000000000000000     
  0.49102621000000002       0.20968644000000000        0.0000000000000000     
  0.49912957000000002       0.77208717000000004        0.0000000000000000     
  0.21724072999999999       0.48989389000000000        0.0000000000000000     
  0.83255933999999998       0.83046598000000005        0.0000000000000000     
  0.16646774000000000       0.17015694000000001        0.0000000000000000     
  0.83054514999999995       0.16736480000000001        0.0000000000000000     
  0.16953130999999999       0.83265739000000005        0.0000000000000000     
  0.42166445000000002       0.36345201999999999        0.0000000000000000     
  0.64462200999999997       0.56347807999999999        0.0000000000000000     
  0.35324633999999999       0.56311191000000005        0.0000000000000000     
  0.65456411000000003       0.84856860999999995        0.0000000000000000     
  0.35141477999999998       0.15563974000000000        0.0000000000000000     
  0.15290967000000000       0.35206625000000003        0.0000000000000000     
  0.82942241000000005       0.34936866000000000        0.0000000000000000     
  0.84390527000000004       0.64441694999999999        0.0000000000000000     
  0.63699174999999997       0.14284276000000001        0.0000000000000000     
  0.15620682999999999       0.64648446999999998        0.0000000000000000     
  0.36426062999999997       0.85756310999999996        0.0000000000000000     
  0.63489340999999999       0.40519052000000000        0.0000000000000000     
  0.52518872999999999       0.65957078000000002        0.0000000000000000     
  0.32158959999999998       0.42298103999999997        0.0000000000000000     
  0.58861710000000000       0.31711036999999997        0.0000000000000000     
  0.42078418000000001       0.69497151999999995        0.0000000000000000     
  0.48608786999999998       0.89334152000000000        0.0000000000000000     
   9.7084320000000002E-002  0.50000000000000000        0.0000000000000000     
  0.90291568000000000       0.50000000000000000        0.0000000000000000     
  0.51392453000000005       0.10668648999999999        0.0000000000000000     
  0.59792566999999996       0.73122754000000001        0.0000000000000000     
  0.74510058999999995       0.41124730999999998        0.0000000000000000     
  0.73212551999999997       0.90191560000000004        0.0000000000000000     
   9.7784830000000003E-002  0.26957329000000002        0.0000000000000000     
  0.26711221000000002        9.8671499999999995E-002   0.0000000000000000     
  0.90191560000000004       0.26787448000000003        0.0000000000000000     
  0.90118569000000004       0.73039821000000005        0.0000000000000000     
  0.73122947000000005        9.8017859999999998E-002   0.0000000000000000     
   9.8084400000000002E-002  0.73212551999999997        0.0000000000000000     
  0.26957329000000002       0.90221516999999996        0.0000000000000000     
  0.39283522999999998       0.25360379000000000        0.0000000000000000     
  0.74480864000000002       0.60495284999999999        0.0000000000000000     
  0.25505132000000003       0.60593640999999998        0.0000000000000000     
  0.52159297999999998       0.40671636000000000        0.0000000000000000     
  0.40768852000000000       0.47699891000000000        0.0000000000000000     
   9.1467049999999994E-002   9.1876959999999994E-002   0.0000000000000000     
  0.90842484999999995       0.90819225000000003        0.0000000000000000     
  0.90820104999999995        9.1566729999999999E-002   0.0000000000000000     
   9.1807449999999999E-002  0.90843574000000005        0.0000000000000000     
  0.27098960000000000       0.20527094000000001        0.0000000000000000     
  0.73457293999999995       0.79835387000000002        0.0000000000000000     
  0.79817773000000003       0.25713470999999999        0.0000000000000000     
  0.20747797000000001       0.72863946000000002        0.0000000000000000     
  0.20175195000000001       0.27583914999999998        0.0000000000000000     
  0.79603889000000005       0.72159035000000005        0.0000000000000000     
  0.71761666000000002       0.19748431999999999        0.0000000000000000     
  0.28462607000000001       0.80251899999999998        0.0000000000000000     
  0.69134598999999997       0.49261972999999998        0.0000000000000000     
  0.44720578999999999       0.58582935999999997        0.0000000000000000     
  0.24242269999999999       0.37228174000000003        0.0000000000000000     
  0.38265623999999998       0.93072131999999996        0.0000000000000000     
  0.60971754000000000       0.91988369000000003        0.0000000000000000     
   7.9163609999999995E-002  0.60979116000000000        0.0000000000000000     
  0.92010649000000000       0.61081183999999999        0.0000000000000000     
  0.61954008999999999        7.1530830000000004E-002   0.0000000000000000     
  0.91882012999999996       0.38917363999999999        0.0000000000000000     
  0.39086346000000000        8.0652249999999995E-002   0.0000000000000000     
   7.9183480000000001E-002  0.38966213000000000        0.0000000000000000     
  0.59114111999999996       0.49294315000000000        0.0000000000000000     
  0.63337980999999999       0.64485914000000000        0.0000000000000000     
  0.50012352000000004       0.29676539000000002        0.0000000000000000     
  0.82552601000000003       0.92753492000000004        0.0000000000000000     
  0.92774772999999999       0.82498556999999995        0.0000000000000000     
   7.1970870000000006E-002  0.17510291000000000        0.0000000000000000     
  0.17422821999999999        7.2635640000000001E-002   0.0000000000000000     
  0.82510813000000005        7.2134840000000006E-002   0.0000000000000000     
  0.92754665000000003       0.17446275999999999        0.0000000000000000     
  0.17501022999999999       0.92789951999999998        0.0000000000000000     
   7.2464680000000004E-002  0.82554053000000005        0.0000000000000000     
  0.30731587999999999       0.50885354999999999        0.0000000000000000     
  0.59033407999999998       0.22171178999999999        0.0000000000000000     
  0.40109191999999999       0.78725542000000004        0.0000000000000000     
  0.35420917000000002       0.63754104000000000        0.0000000000000000     
  0.15983976999999999       0.56665573000000002        0.0000000000000000     
  0.84108459999999996       0.56757886999999996        0.0000000000000000     
  0.83902096000000004       0.43344338999999998        0.0000000000000000     
  0.43230028999999998       0.16004268999999999        0.0000000000000000     
  0.57536027999999995       0.83041363999999995        0.0000000000000000     
  0.15771898000000001       0.42747892999999998        0.0000000000000000     
  0.34021692999999997       0.34221559000000001        0.0000000000000000     
  0.56002271999999997       0.57501117999999996        0.0000000000000000     
  0.65344329000000001       0.78147597999999996        0.0000000000000000     
   0.0000000000000000        0.0000000000000000        0.0000000000000000     
   1.0000000000000000        0.0000000000000000        0.0000000000000000     
   1.0000000000000000        1.0000000000000000        0.0000000000000000     
   0.0000000000000000        1.0000000000000000        0.0000000000000000     
  0.11111111000000000        0.0000000000000000        0.0000000000000000     
  0.22222222000000000        0.0000000000000000        0.0000000000000000     
  0.33333332999999998        0.0000000000000000        0.0000000000000000     
  0.44444444000000000        0.0000000000000000        0.0000000000000000     
  0.55555555999999995        0.0000000000000000        0.0000000000000000     
  0.66666667000000002        0.0000000000000000        0.0000000000000000     
  0.77777777999999997        0.0000000000000000        0.0000000000000000     
  0.88888889000000004        0.0000000000000000        0.0000000000000000     
   1.0000000000000000       0.11111111000000000        0.0000000000000000     
   1.0000000000000000       0.22222222000000000        0.0000000000000000     
   1.0000000000000000       0.33333332999999998        0.0000000000000000     
   1.0000000000000000       0.44444444000000000        0.0000000000000000     
   1.0000000000000000       0.55555555999999995        0.0000000000000000     
   1.0000000000000000       0.66666667000000002        0.0000000000000000     
   1.0000000000000000       0.77777777999999997        0.0000000000000000     
   1.0000000000000000       0.88888889000000004        0.0000000000000000     
  0.88888889000000004        1.0000000000000000        0.0000000000000000     
  0.77777777999999997        1.0000000000000000        0.0000000000000000     
  0.66666667000000002        1.0000000000000000        0.0000000000000000     
  0.55555555999999995        1.0000000000000000        0.0000000000000000     
  0.44444444000000000        1.0000000000000000        0.0000000000000000     
  0.33333332999999998        1.0000000000000000        0.0000000000000000     
  0.22222222000000000        1.0000000000000000        0.0000000000000000     
  0.11111111000000000        1.0000000000000000        0.0000000000000000     
   0.0000000000000000       0.11111111000000000        0.0000000000000000     
   0.0000000000000000       0.22222222000000000        0.0000000000000000     
[...]
 CELL_DATA         354
 SCALARS U float
 LOOKUP_TABLE default
    0.49553608719244887241E-07
    0.16122083880838931577E-03
    0.82409224343053985890E-06
    0.48167783128824773398E-05
    0.27477971927654414991E-06
    0.99709760426325447582E-05
    0.12239565361353278673E-03
    0.20257895925235617444E-04
    0.15591684785836075217E-03
    0.47140011414142305845E-03
    0.66697844503314611397E-03
    0.75756693225832152840E-03
    0.89681169165215218059E-03
    0.85719947806413092882E-03
    0.97462009932769964621E-03
    0.81060689581061195260E-03
    0.51637165047060658383E-03
    0.21105223471694223715E-03
    0.19731076449505278655E-03
    0.19201848473560966034E-03
    0.15177132617818971734E-03
    0.20020664825328015756E-03
    0.35094965048765888564E-03
    0.11378911234178773232E-03
    0.31735842543252385135E-03
    0.12633793273150349060E-03
    0.13618297814034112164E-03
    0.18554513357126522707E-03
    0.49596937978267015040E-04
    0.13860992886692414881E-05
    0.12137685026698277398E-06
    0.20356465668895302091E-06
    0.12533331671806332311E-06
    0.10891313355645391060E-06
    0.21927323249518409208E-06
    0.16855753045319458445E-06
    0.26751083062495582200E-06
    0.15958034235276741151E-06
    0.53710779448767567396E-07
    0.69982156518175563008E-07
    0.47766319386386001685E-07
    0.34076595902571045994E-07
    0.40211333625381457090E-07
    0.34079050433735336872E-07
    0.40228539559798063946E-07
    0.22936398872506290719E-07
    0.85678778284352253720E-07
    0.29859220255967851156E-07
    0.36503920446715451531E-06
    0.12218002763994599345E-05
    0.34029847889774486516E-05
    0.18567694635564108942E-05
    0.49831397928160441594E-07
    0.15666444827795583663E-07
    0.63161220073823457180E-07
    0.17024146356681078523E-07
    0.61508732960154308875E-07
    0.42574427995713555405E-07
    0.64202612638990291248E-07
    0.42578284604756428048E-07
    0.64193903442417965354E-07
    0.49858192675893795418E-07
    0.70210577564760521221E-07
    0.49875705924582160016E-07
    0.14868792739385101171E-06
    0.16942842706422774291E-06
    0.79131395661106731638E-06
    0.73991033219216710531E-06
    0.39098288999303608751E-03
    0.92944805220093068034E-03
    0.76813478581008406455E-03
    0.66741699310881382086E-03
    0.98298465106221293713E-03
    0.90576289922393582454E-03
    0.74569138423150938856E-03
    0.55335858609088068531E-03
    0.67631702055016439026E-03
    0.11649091205094218825E-02
    0.13498553941048116217E-03
    0.19736910473206915472E-03
    0.48647563590990198622E-04
    0.35120152487985057549E-04
    0.29552384960058694120E-03
    0.43438584958524076383E-04
    0.44778021342482289806E-03
    0.11920714640215911216E-03
    0.42652448145898527622E-06
    0.40091833920682576732E-03
    0.36582899605012525425E-03
    0.20187084128355149313E-03
    0.15483667704127164456E-03
    0.91028824582897497025E-04
    0.22463323202901582532E-05
    0.43660673598844383204E-06
    0.37400073139425693011E-06
    0.71064332320948591201E-06
    0.92797910505419811526E-04
    0.58372633511496205359E-03
    0.81540732579694257323E-03
    0.69926829884970947895E-03
    0.10050350199098168937E-02
    0.60255449280562046674E-03
    0.95618407253920056302E-03
    0.49315357170802692072E-03
    0.46139605051784504620E-03
    0.11718762415955513712E-03
    0.17048796631495343823E-03
    0.33634384159187048118E-03
    0.23129713537285188983E-03
    0.77925397214809719905E-04
    0.37483286586512794546E-06
    0.31305376508385652471E-04
    0.84536467687663522912E-06
    0.54358146398752020483E-06
    0.47412137496981250672E-03
    0.94633560094739915488E-04
    0.10527513565070803036E-03
    0.14670985356795589378E-03
    0.23454867257333855300E-03
    0.13647777257103548922E-05
    0.10449661534142589542E-03
    0.15265434120279252986E-06
    0.23821342817001513741E-06
    0.26737576407429033724E-06
    0.33995544822248647783E-06
    0.46429198987374497743E-06
    0.17504356113498752274E-06
    0.21893085726570346322E-06
    0.11830924725524417387E-03
    0.14635180907913197443E-03
    0.12763254021173896946E-04
    0.29724297565935102385E-03
    0.18144617127135320321E-03
    0.26804806959406232700E-05
    0.52102650530064200838E-04
    0.76675058605142512418E-03
    0.95440927465158893663E-03
    0.49191879785147015532E-03
    0.84924570586131589451E-03
    0.54167639386443666629E-03
    0.64516276428620009716E-03
    0.53995297230723961462E-03
    0.12055339361661330783E-06
    0.12750896573709123307E-06
    0.13048680627935819604E-06
    0.19593287161547223835E-06
    0.13472478224801112820E-06
    0.10580252816881528728E-06
    0.11021690100357179078E-06
    0.51422540616669618670E-03
    0.40738141802252247556E-03
    0.16122070304547790479E-03
    0.58158597220963107431E-03
    0.16154452843159300868E-03
    0.66647095785502788630E-03
    0.69418995550085075413E-03
    0.10011435042043294579E-02
    0.81048992675721248744E-03
    0.68692908650437882381E-03
    0.11260986766658462582E-02
    0.22828365818702690371E-03
    0.67818965949593913636E-03
    0.51861205912877002353E-03
    0.26518587094539406834E-03
    0.22981143566845108929E-03
    0.14958635360662785459E-06
    0.32967236662447093073E-06
    0.13588322813860665146E-06
    0.25761796224156163917E-06
    0.39608023796467565577E-06
    0.59468825800364634275E-03
    0.89387518603197436019E-03
    0.73617909009192805843E-03
    0.95948308311412204563E-03
    0.85148213560314284058E-03
    0.40264777943838951841E-04
    0.67019659875936610878E-04
    0.14992766656344281803E-03
    0.51772327391757724932E-04
    0.49685928434765912805E-04
    0.72123873376910160003E-03
    0.72793815211949811864E-03
    0.80645209358070366144E-03
    0.54319307697842740459E-03
    0.86213133974033008284E-03
    0.29045378028383905935E-04
    0.19869885617129838225E-03
    0.57973862796895852544E-05
    0.38844320886076847744E-04
    0.11109724450350064065E-03
    0.38973597573364898326E-03
    0.50739939175649688332E-03
    0.81679278245384010545E-04
    0.35931259656155669626E-03
    0.26690231649366196690E-04
    0.21101038779979895813E-06
    0.11251322541549934117E-05
    0.29116218996598513997E-06
    0.19269413169011441956E-06
    0.31837915367539868179E-06
    0.70078824646193956292E-07
    0.10886480865357512933E-06
    0.11558207356711550017E-06
    0.53024992739369160974E-07
    0.11670837665447221189E-06
    0.68084803002417766810E-06
    0.40034115328958091995E-03
    0.12782137771115138596E-03
    0.47462022108634387271E-03
    0.40814656688584779846E-03
    0.20416225903167973328E-03
    0.15977460853597722965E-03
    0.50983199316651916372E-03
    0.28540334965028316475E-03
    0.72188451055206265174E-03
    0.10155652863389980425E-02
    0.61027750522175505492E-03
    0.60253959549901937084E-03
    0.10991694644512514309E-02
    0.79511344120144324739E-06
    0.32970560820116334544E-07
    0.11671910558545077484E-06
    0.39061545395561574632E-03
    0.18590543459271567577E-05
    0.98118206524357550130E-04
    0.53193576847254324182E-07
    0.64595878654105800360E-07
    0.12184974847950856251E-06
    0.18822054789244587718E-06
    0.10828520520071612574E-06
    0.98028686442512772038E-07
    0.22860868651698484378E-06
    0.93747991969652140075E-04
    0.23091778642650938845E-03
    0.23374577891569623040E-03
    0.29612541770141864814E-03
    0.46876633524602198720E-03
    0.67034060202198722956E-03
    0.76794286346895180347E-03
    0.48253435057126744861E-03
    0.67015473721416152393E-03
    0.29362442218279407452E-03
    0.23989433058001910569E-04
    0.24616904213251636211E-04
    0.75023641493062690356E-03
    0.70131585150989849721E-03
    0.26460667136182783764E-06
    0.73317495828287766966E-07
    0.10189712061835504305E-06
    0.17007995307926325208E-03
    0.26714525962407921470E-05
    0.68608982013116282040E-07
    0.31607311074887989603E-03
    0.52845914457580434823E-03
    0.11519101945813204789E-03
    0.64555975396429299360E-03
    0.41088676309564939630E-03
    0.39504962139542216994E-03
    0.21362346280122584904E-05
    0.26621274857105227044E-04
    0.21848386708333499914E-06
    0.52499660811022592476E-03
    0.77095171630436627047E-03
    0.62196969501992669608E-03
    0.20944201547006308324E-06
    0.11246270211808697769E-06
    0.13791456245687961959E-06
    0.15450988950467386960E-06
    0.91956259134829956294E-07
    0.12930405195865611772E-06
    0.57612332056199437504E-03
    0.45712637093122082503E-03
    0.69276241794645010506E-03
    0.99364703327936175145E-03
    0.19368109765399691325E-03
    0.63186214252382614468E-03
    0.32544778388167439065E-03
    0.26167184545619560834E-03
    0.11181741825260149672E-05
    0.23320286800935081896E-03
    0.96326903641588232266E-04
    0.11902345981341335843E-05
    0.54635978219016252590E-03
    0.40896461371443354428E-03
    0.12297926431009166548E-03
    0.92636082588711161651E-03
    0.67275873790598314170E-03
    0.23176024756120916623E-05
    0.10483091949901173566E-04
    0.22211024567005693755E-06
    0.25719844918378961798E-06
    0.19778291318619530643E-03
    0.20748878430568030019E-03
    0.12879037335504347526E-06
    0.13267808154731417167E-06
    0.27160963700920197307E-03
    0.63902471760129446322E-05
    0.42083818276286922211E-04
    0.41098943177735627842E-03
    0.22388329479225469275E-06
    0.16612740812310333662E-03
    0.19965067169554629855E-03
    0.16290583162758953960E-06
    0.75134256244778962683E-03
    0.39025291372656517120E-03
    0.98019194752166491011E-03
    0.14501050084856078140E-03
    0.76366397633711319021E-03
    0.18192142197636034321E-06
    0.21682005753319485269E-06
    0.25978971090651113793E-03
    0.52120700698776874747E-03
    0.75425254917250474096E-03
    0.48934261825427057869E-04
    0.87698562379223124127E-03
    0.75259631953499613478E-03
    0.25416412568042336546E-04
    0.23133322183428282491E-04
    0.25587351883601284082E-07
    0.99434100586701706318E-08
    0.15803820554162223595E-03
    0.78652649308282941939E-07
    0.10687829664257457367E-05
    0.11236470701784403999E-05
    0.72035045105501819841E-05
    0.44556694549185122699E-05
    0.96251849443777819830E-05
    0.63686865590265859033E-04
    0.50829015744324420635E-03
    0.13168625250834999248E-02
    0.15895788733768293193E-02
    0.84659638619346590238E-03
    0.81342133332940318603E-04
    0.95539775212132650142E-07
    0.10417009590525780263E-04
    0.28598366560947189401E-06
    0.65974355937087257840E-06
    0.99652312336182524290E-08
    0.14863203315878698768E-07
    0.10098469446609089303E-06
    0.14235320984547892770E-06
    0.18844439411915388794E-07
    0.99539979714638590590E-08
    0.99593253953075577846E-08
    0.20372059277322703966E-07
    0.44458549845221539271E-06
    0.26945517707700509529E-05
    0.99263071695079034593E-08
    0.99148263364400363357E-08
    0.99169883037745872340E-08
    0.99240071738256718140E-08
    0.99552646883663917187E-08
    0.10333186338296832594E-06
    0.11067191553707302854E-05
