# vtk DataFile Version 3.0
LAPLACIEN  2D
ASCII
DATASET UNSTRUCTURED_GRID
 POINTS         391  float
  0.50371505999999999       0.50367786999999997        0.0000000000000000     
  0.29013556000000001       0.29014535000000002        0.0000000000000000     
  0.70165584999999997       0.71206597999999999        0.0000000000000000     
  0.70304188999999995       0.30176619999999998        0.0000000000000000     
  0.30920671999999999       0.71149227999999998        0.0000000000000000     
  0.79044983999999996       0.49884783999999999        0.0000000000000000     
  0.49102621000000002       0.20968644000000000        0.0000000000000000     
  0.49912957000000002       0.77208717000000004        0.0000000000000000     
  0.21724072999999999       0.48989389000000000        0.0000000000000000     
  0.83255933999999998       0.83046598000000005        0.0000000000000000     
  0.16646774000000000       0.17015694000000001        0.0000000000000000     
  0.83054514999999995       0.16736480000000001        0.0000000000000000     
  0.16953130999999999       0.83265739000000005        0.0000000000000000     
  0.42166445000000002       0.36345201999999999        0.0000000000000000     
  0.64462200999999997       0.56347807999999999        0.0000000000000000     
  0.35324633999999999       0.56311191000000005        0.0000000000000000     
  0.65456411000000003       0.84856860999999995        0.0000000000000000     
  0.35141477999999998       0.15563974000000000        0.0000000000000000     
  0.15290967000000000       0.35206625000000003        0.0000000000000000     
  0.82942241000000005       0.34936866000000000        0.0000000000000000     
  0.84390527000000004       0.64441694999999999        0.0000000000000000     
  0.63699174999999997       0.14284276000000001        0.0000000000000000     
  0.15620682999999999       0.64648446999999998        0.0000000000000000     
  0.36426062999999997       0.85756310999999996        0.0000000000000000     
  0.63489340999999999       0.40519052000000000        0.0000000000000000     
  0.52518872999999999       0.65957078000000002        0.0000000000000000     
  0.32158959999999998       0.42298103999999997        0.0000000000000000     
  0.58861710000000000       0.31711036999999997        0.0000000000000000     
  0.42078418000000001       0.69497151999999995        0.0000000000000000     
  0.48608786999999998       0.89334152000000000        0.0000000000000000     
   9.7084320000000002E-002  0.50000000000000000        0.0000000000000000     
  0.90291568000000000       0.50000000000000000        0.0000000000000000     
  0.51392453000000005       0.10668648999999999        0.0000000000000000     
  0.59792566999999996       0.73122754000000001        0.0000000000000000     
  0.74510058999999995       0.41124730999999998        0.0000000000000000     
  0.73212551999999997       0.90191560000000004        0.0000000000000000     
   9.7784830000000003E-002  0.26957329000000002        0.0000000000000000     
  0.26711221000000002        9.8671499999999995E-002   0.0000000000000000     
  0.90191560000000004       0.26787448000000003        0.0000000000000000     
  0.90118569000000004       0.73039821000000005        0.0000000000000000     
  0.73122947000000005        9.8017859999999998E-002   0.0000000000000000     
   9.8084400000000002E-002  0.73212551999999997        0.0000000000000000     
  0.26957329000000002       0.90221516999999996        0.0000000000000000     
  0.39283522999999998       0.25360379000000000        0.0000000000000000     
  0.74480864000000002       0.60495284999999999        0.0000000000000000     
  0.25505132000000003       0.60593640999999998        0.0000000000000000     
  0.52159297999999998       0.40671636000000000        0.0000000000000000     
  0.40768852000000000       0.47699891000000000        0.0000000000000000     
   9.1467049999999994E-002   9.1876959999999994E-002   0.0000000000000000     
  0.90842484999999995       0.90819225000000003        0.0000000000000000     
  0.90820104999999995        9.1566729999999999E-002   0.0000000000000000     
   9.1807449999999999E-002  0.90843574000000005        0.0000000000000000     
  0.27098960000000000       0.20527094000000001        0.0000000000000000     
  0.73457293999999995       0.79835387000000002        0.0000000000000000     
  0.79817773000000003       0.25713470999999999        0.0000000000000000     
  0.20747797000000001       0.72863946000000002        0.0000000000000000     
  0.20175195000000001       0.27583914999999998        0.0000000000000000     
  0.79603889000000005       0.72159035000000005        0.0000000000000000     
  0.71761666000000002       0.19748431999999999        0.0000000000000000     
  0.28462607000000001       0.80251899999999998        0.0000000000000000     
  0.69134598999999997       0.49261972999999998        0.0000000000000000     
  0.44720578999999999       0.58582935999999997        0.0000000000000000     
  0.24242269999999999       0.37228174000000003        0.0000000000000000     
  0.38265623999999998       0.93072131999999996        0.0000000000000000     
  0.60971754000000000       0.91988369000000003        0.0000000000000000     
   7.9163609999999995E-002  0.60979116000000000        0.0000000000000000     
  0.92010649000000000       0.61081183999999999        0.0000000000000000     
  0.61954008999999999        7.1530830000000004E-002   0.0000000000000000     
  0.91882012999999996       0.38917363999999999        0.0000000000000000     
  0.39086346000000000        8.0652249999999995E-002   0.0000000000000000     
   7.9183480000000001E-002  0.38966213000000000        0.0000000000000000     
  0.59114111999999996       0.49294315000000000        0.0000000000000000     
  0.63337980999999999       0.64485914000000000        0.0000000000000000     
  0.50012352000000004       0.29676539000000002        0.0000000000000000     
  0.82552601000000003       0.92753492000000004        0.0000000000000000     
  0.92774772999999999       0.82498556999999995        0.0000000000000000     
   7.1970870000000006E-002  0.17510291000000000        0.0000000000000000     
  0.17422821999999999        7.2635640000000001E-002   0.0000000000000000     
  0.82510813000000005        7.2134840000000006E-002   0.0000000000000000     
  0.92754665000000003       0.17446275999999999        0.0000000000000000     
  0.17501022999999999       0.92789951999999998        0.0000000000000000     
   7.2464680000000004E-002  0.82554053000000005        0.0000000000000000     
  0.30731587999999999       0.50885354999999999        0.0000000000000000     
  0.59033407999999998       0.22171178999999999        0.0000000000000000     
  0.40109191999999999       0.78725542000000004        0.0000000000000000     
  0.35420917000000002       0.63754104000000000        0.0000000000000000     
  0.15983976999999999       0.56665573000000002        0.0000000000000000     
  0.84108459999999996       0.56757886999999996        0.0000000000000000     
  0.83902096000000004       0.43344338999999998        0.0000000000000000     
  0.43230028999999998       0.16004268999999999        0.0000000000000000     
  0.57536027999999995       0.83041363999999995        0.0000000000000000     
  0.15771898000000001       0.42747892999999998        0.0000000000000000     
  0.34021692999999997       0.34221559000000001        0.0000000000000000     
  0.56002271999999997       0.57501117999999996        0.0000000000000000     
  0.65344329000000001       0.78147597999999996        0.0000000000000000     
   0.0000000000000000        0.0000000000000000        0.0000000000000000     
   1.0000000000000000        0.0000000000000000        0.0000000000000000     
   1.0000000000000000        1.0000000000000000        0.0000000000000000     
   0.0000000000000000        1.0000000000000000        0.0000000000000000     
  0.11111111000000000        0.0000000000000000        0.0000000000000000     
  0.22222222000000000        0.0000000000000000        0.0000000000000000     
  0.33333332999999998        0.0000000000000000        0.0000000000000000     
  0.44444444000000000        0.0000000000000000        0.0000000000000000     
  0.55555555999999995        0.0000000000000000        0.0000000000000000     
  0.66666667000000002        0.0000000000000000        0.0000000000000000     
  0.77777777999999997        0.0000000000000000        0.0000000000000000     
  0.88888889000000004        0.0000000000000000        0.0000000000000000     
   1.0000000000000000       0.11111111000000000        0.0000000000000000     
   1.0000000000000000       0.22222222000000000        0.0000000000000000     
   1.0000000000000000       0.33333332999999998        0.0000000000000000     
   1.0000000000000000       0.44444444000000000        0.0000000000000000     
   1.0000000000000000       0.55555555999999995        0.0000000000000000     
   1.0000000000000000       0.66666667000000002        0.0000000000000000     
   1.0000000000000000       0.77777777999999997        0.0000000000000000     
   1.0000000000000000       0.88888889000000004        0.0000000000000000     
  0.88888889000000004        1.0000000000000000        0.0000000000000000     
  0.77777777999999997        1.0000000000000000        0.0000000000000000     
  0.66666667000000002        1.0000000000000000        0.0000000000000000     
  0.55555555999999995        1.0000000000000000        0.0000000000000000     
  0.44444444000000000        1.0000000000000000        0.0000000000000000     
  0.33333332999999998        1.0000000000000000        0.0000000000000000     
  0.22222222000000000        1.0000000000000000        0.0000000000000000     
  0.11111111000000000        1.0000000000000000        0.0000000000000000     
   0.0000000000000000       0.11111111000000000        0.0000000000000000     
   0.0000000000000000       0.22222222000000000        0.0000000000000000     
[...]
 CELL_DATA         354
 SCALARS U float
 LOOKUP_TABLE default
    0.26131652512678556650E-07
    0.82350387991024151784E-04
    0.43574806707743363131E-06
    0.26864551837587879753E-05
    0.59220153965240922729E-06
    0.41135373357129578967E-05
    0.79613137545563804039E-04
    0.88567914844259234002E-05
    0.98865230386389690116E-04
    0.36358592495374828738E-03
    0.53706818471204516730E-03
    0.61637648216547862717E-03
    0.72258291869286542155E-03
    0.68647530303283133424E-03
    0.78612455024638016807E-03
    0.65110382725662744804E-03
    0.40286966385590984065E-03
    0.16544842356656515553E-03
    0.11382123040207666961E-03
    0.15268088502766880834E-03
    0.85771636327119430668E-04
    0.12166910932486192448E-03
    0.26517675352900855557E-03
    0.74459363711338051703E-04
    0.24602216875472626787E-03
    0.91721198689186642962E-04
    0.84194364202869049194E-04
    0.12368636800997275037E-03
    0.35203533646166354325E-04
    0.31926040664984590568E-06
    0.62306315451125704476E-07
    0.10419895280015411073E-06
    0.62323909999894081700E-07
    0.54908920294324090067E-07
    0.10776171636979826403E-06
    0.81764413406330075301E-07
    0.13053677147069572172E-06
    0.76718747715853479846E-07
    0.26979791390805166585E-07
    0.35370543345230290044E-07
    0.25947868089587583910E-07
    0.19369104308906589250E-07
    0.22000207652634093116E-07
    0.19372455766640126246E-07
    0.22016089599543011348E-07
    0.14370323194819162113E-07
    0.44379509215968331368E-07
    0.15816616553025533506E-07
    0.18862983348659675629E-06
    0.65774491107492031497E-06
    0.18813402880241570847E-05
    0.10119444145831499622E-05
    0.26526028739012964077E-07
    0.11617764991824899300E-07
    0.33773835222811790680E-07
    0.13559712302947343387E-07
    0.31424580230757394542E-07
    0.23386018031319457689E-07
    0.33745827238845229803E-07
    0.23390130696004770557E-07
    0.33735232482357587816E-07
    0.27074180095971274009E-07
    0.37133929359812337372E-07
    0.27084452565365598559E-07
    0.71462006982556832650E-07
    0.79218019109696594455E-07
    0.41394335615653900484E-06
    0.39468249992623687757E-06
    0.30529372611637426837E-03
    0.73183501945949468691E-03
    0.61300367957518473935E-03
    0.48779318260855857427E-03
    0.78330743333926303260E-03
    0.72075878997880941847E-03
    0.59572073373978572195E-03
    0.44280449754242120087E-03
    0.53897121077528975953E-03
    0.92118746305362849639E-03
    0.78092563133963394128E-04
    0.14564682981265579878E-03
    0.23728569128354650098E-04
    0.19562302611431020479E-04
    0.19860845026810380106E-03
    0.22901430927899348115E-04
    0.34434344592783062413E-03
    0.66647352372904198714E-04
    0.18786671712315075860E-06
    0.28152047542938526091E-03
    0.27380992244437052895E-03
    0.10874275090455929997E-03
    0.85771060186539565574E-04
    0.51443604151993239536E-04
    0.87535450641287906363E-06
    0.20733941570067436044E-06
    0.17912792332102710127E-06
    0.22547590694440809639E-06
    0.52284291313540492876E-04
    0.46234553301263670542E-03
    0.64196818412586063949E-03
    0.55395922531683780554E-03
    0.79688458482447658855E-03
    0.47610863988771913533E-03
    0.76554661409160805474E-03
    0.34684677249757154540E-03
    0.34204153023670118543E-03
    0.62737466369553021627E-04
    0.93605042071197121288E-04
    0.24856891820396458549E-03
    0.15431365581763828465E-03
    0.43645354611060486149E-04
    0.18561155307142526031E-06
    0.17219462073921760743E-04
    0.25544764584090599545E-06
    0.23674479079955291170E-06
    0.37391277023404094308E-03
    0.53433676051209400264E-04
    0.58669383831889886593E-04
    0.11135382543735517532E-03
    0.15795232897332519249E-03
    0.67236935578823967011E-06
    0.58456571325522072545E-04
    0.75616549441957082250E-07
    0.11533458342781863622E-06
    0.13274386964313378847E-06
    0.16542973058784374363E-06
    0.22825427775361381511E-06
    0.85449528124364139376E-07
    0.10671147633404929486E-06
    0.74300230303168276710E-04
    0.93952044756023497026E-04
    0.45716752465885862399E-05
    0.21272547684284212892E-03
    0.11021125427951254509E-03
    0.18930475062829497477E-05
    0.26435575355711753593E-04
    0.61131078707063251851E-03
    0.74753467176950916251E-03
    0.38860677054197500591E-03
    0.65897581818120259684E-03
    0.41287306803287085683E-03
    0.50826803200705605607E-03
    0.42441150127698115940E-03
    0.59126922817809760274E-07
    0.64907231646174017052E-07
    0.65974947426035734714E-07
    0.95469474155821694706E-07
    0.67177100002338392002E-07
    0.52943142195045792306E-07
    0.54886282929099358759E-07
    0.39423257519336792716E-03
    0.30827258072592351795E-03
    0.87616951001410347958E-04
    0.44676817382922380398E-03
    0.87547445478401556863E-04
    0.50904446620766302407E-03
    0.55110504338330798969E-03
    0.79459048405472205295E-03
    0.60871760924329854428E-03
    0.54449794950286989868E-03
    0.90294918885422696588E-03
    0.15407522386903622848E-03
    0.52975603485847053576E-03
    0.41152033322384219986E-03
    0.20198261540019300884E-03
    0.15493140756296175722E-03
    0.71636635095183455663E-07
    0.15841445994191829501E-06
    0.65440633294878455703E-07
    0.12072107878881052748E-06
    0.18547448873899514595E-06
    0.46180239955878778354E-03
    0.70180810618533553524E-03
    0.57782487716504958228E-03
    0.75520977894919492663E-03
    0.65843436136327963652E-03
    0.19837298055315251302E-04
    0.37453892881026814242E-04
    0.11297898954474342944E-03
    0.27984838177674888770E-04
    0.27736610148505528407E-04
    0.55623145128237921724E-03
    0.57137177938172798060E-03
    0.61713131433926927873E-03
    0.41924472655996403419E-03
    0.68118379377254446600E-03
    0.13899824445745339804E-04
    0.14462221185791788568E-03
    0.22171783050953717783E-05
    0.20407976349013697969E-04
    0.72898187080220759647E-04
    0.28441112725849024279E-03
    0.38208295063021224932E-03
    0.40109354528322360689E-04
    0.25468820055339343005E-03
    0.12419348224034621898E-04
    0.10129371600818581485E-06
    0.56628848105116038575E-06
    0.13950908766671758591E-06
    0.92968370225650273199E-07
    0.14932850802072603791E-06
    0.34755862829877789807E-07
    0.55975068133579992693E-07
    0.57944018703243689765E-07
    0.27391499286450115431E-07
    0.57740489114081368485E-07
    0.23036591245355071149E-06
    0.28146147039625210931E-03
    0.71648794520294407082E-04
    0.37092393996486023233E-03
    0.25561681436579296745E-03
    0.13902094487271005594E-03
    0.11299279794028824426E-03
    0.40469314714185915857E-03
    0.21610356032170910303E-03
    0.57404032231874553213E-03
    0.80061350131751510186E-03
    0.48011421232011869875E-03
    0.47289434242524513042E-03
    0.86268613669900344899E-03
    0.29982697515748782077E-06
    0.18855717635941334653E-07
    0.72225122776805782154E-07
    0.31257435677966796282E-03
    0.65755807919142948544E-06
    0.55055403727867042671E-04
    0.26422941411567788947E-07
    0.31694182323397613593E-07
    0.62268234055579549742E-07
    0.89031275484024103406E-07
    0.54731170170227036939E-07
    0.47514312588678684897E-07
    0.11070130180783019759E-06
    0.52970508765418435092E-04
    0.13925458019663434009E-03
    0.15895636809796153625E-03
    0.18761341548438880420E-03
    0.37344342191823482868E-03
    0.50224792389124556236E-03
    0.60086368236403678560E-03
    0.34280403270251874571E-03
    0.50742364762332888960E-03
    0.19782052121326869831E-03
    0.13257516224575536124E-04
    0.14291793840312862421E-04
    0.58417745755025198701E-03
    0.55342214236271832211E-03
    0.12809035579440321171E-06
    0.36871293602029875452E-07
    0.50367869137551148753E-07
    0.10401123527780628845E-03
    0.49437964631227865107E-06
    0.35045350305005380371E-07
    0.23567788595879604553E-03
    0.40454795235441652059E-03
    0.75119778396204382569E-04
    0.50117809211193344206E-03
    0.31912117939970918203E-03
    0.30056932893559294446E-03
    0.65405126249757069364E-06
    0.13079896449890867800E-04
    0.10724961394680965308E-06
    0.39015457158434959945E-03
    0.58982511986844935251E-03
    0.48262505128550620484E-03
    0.10085587045776360872E-06
    0.55885169249672356072E-07
    0.66606209829739722204E-07
    0.78167094529937479315E-07
    0.47617523934757185099E-07
    0.66415168709212841841E-07
    0.45334221207643597262E-03
    0.34002851743003526495E-03
    0.53338606676612274667E-03
    0.77728913425206716363E-03
    0.14440254127708577895E-03
    0.49580577581145532113E-03
    0.24852820869059028376E-03
    0.19176774925629570118E-03
    0.56547649224654088909E-06
    0.15737927503712889404E-03
    0.53370042064393932051E-04
    0.57955673980271598395E-06
    0.42883304805697061279E-03
    0.25545749652586822228E-03
    0.68364306919002133410E-04
    0.73688794172485844788E-03
    0.52714146578270793583E-03
    0.17108317712299998784E-05
    0.33302772627021534747E-05
    0.11000763442765097106E-06
    0.12811820857783705850E-06
    0.15629035830512733127E-03
    0.12591230690457493827E-03
    0.64985103306998130699E-07
    0.66928748146008127206E-07
    0.20003796918035391425E-03
    0.21050728612762662459E-05
    0.21501326369823171728E-04
    0.29682815215902426994E-03
    0.10959656583295456708E-06
    0.12432735592537275636E-03
    0.10822776896161122946E-03
    0.80293986349141203540E-07
    0.55422249009808011427E-03
    0.31263942224591886616E-03
    0.78865402791446594707E-03
    0.11049155011703658291E-03
    0.59620619973786454383E-03
    0.86223142213359873043E-07
    0.10597162126191396189E-06
    0.15963161174258261917E-03
    0.41487017782112009653E-03
    0.58568922997292462412E-03
    0.27394955922439230057E-04
    0.66352329499320213037E-03
    0.59897969247155473296E-03
    0.10188737210531398451E-04
    0.12824759855523784182E-04
    0.14252755709158041004E-07
    0.99337843159011465733E-08
    0.80195520240178560047E-04
    0.11908363413673424426E-07
    0.56825167515312985625E-06
    0.59407152999135255114E-06
    0.40245548272699910200E-05
    0.24820892130176513895E-05
    0.34875494591269982052E-05
    0.38571610966603176720E-04
    0.42529325581392021316E-03
    0.10984187343420978578E-02
    0.13225710978953643740E-02
    0.70425442973922128265E-03
    0.65655324125463306560E-04
    0.19688019867758956844E-07
    0.43205934798079960961E-05
    0.65013500637544363471E-07
    0.10577568354579725534E-06
    0.99516965899910496807E-08
    0.99666718401652820621E-08
    0.47978006535759638234E-07
    0.67993035391931078255E-07
    0.11467516824858878788E-07
    0.99454883485002190232E-08
    0.99492704907002718993E-08
    0.12147464245733084203E-07
    0.22697244015145765402E-06
    0.14557311513868377426E-05
    0.99229582655342464405E-08
    0.99140563493471833345E-08
    0.99160723559754898671E-08
    0.99208807999706648846E-08
    0.99461281898459391239E-08
    0.51663383169759130969E-07
    0.58833798109704929731E-06
