# vtk DataFile Version 3.0
LAPLACIEN  2D
ASCII
DATASET UNSTRUCTURED_GRID
 POINTS         391  float
  0.50371505999999999       0.50367786999999997        0.0000000000000000     
  0.29013556000000001       0.29014535000000002        0.0000000000000000     
  0.70165584999999997       0.71206597999999999        0.0000000000000000     
  0.70304188999999995       0.30176619999999998        0.0000000000000000     
  0.30920671999999999       0.71149227999999998        0.0000000000000000     
  0.79044983999999996       0.49884783999999999        0.0000000000000000     
  0.49102621000000002       0.20968644000000000        0.0000000000000000     
  0.49912957000000002       0.77208717000000004        0.0000000000000000     
  0.21724072999999999       0.48989389000000000        0.0000000000000000     
  0.83255933999999998       0.83046598000000005        0.0000000000000000     
  0.16646774000000000       0.17015694000000001        0.0000000000000000     
  0.83054514999999995       0.16736480000000001        0.0000000000000000     
  0.16953130999999999       0.83265739000000005        0.0000000000000000     
  0.42166445000000002       0.36345201999999999        0.0000000000000000     
  0.64462200999999997       0.56347807999999999        0.0000000000000000     
  0.35324633999999999       0.56311191000000005        0.0000000000000000     
  0.65456411000000003       0.84856860999999995        0.0000000000000000     
  0.35141477999999998       0.15563974000000000        0.0000000000000000     
  0.15290967000000000       0.35206625000000003        0.0000000000000000     
  0.82942241000000005       0.34936866000000000        0.0000000000000000     
  0.84390527000000004       0.64441694999999999        0.0000000000000000     
  0.63699174999999997       0.14284276000000001        0.0000000000000000     
  0.15620682999999999       0.64648446999999998        0.0000000000000000     
  0.36426062999999997       0.85756310999999996        0.0000000000000000     
  0.63489340999999999       0.40519052000000000        0.0000000000000000     
  0.52518872999999999       0.65957078000000002        0.0000000000000000     
  0.32158959999999998       0.42298103999999997        0.0000000000000000     
  0.58861710000000000       0.31711036999999997        0.0000000000000000     
  0.42078418000000001       0.69497151999999995        0.0000000000000000     
  0.48608786999999998       0.89334152000000000        0.0000000000000000     
   9.7084320000000002E-002  0.50000000000000000        0.0000000000000000     
  0.90291568000000000       0.50000000000000000        0.0000000000000000     
  0.51392453000000005       0.10668648999999999        0.0000000000000000     
  0.59792566999999996       0.73122754000000001        0.0000000000000000     
  0.74510058999999995       0.41124730999999998        0.0000000000000000     
  0.73212551999999997       0.90191560000000004        0.0000000000000000     
   9.7784830000000003E-002  0.26957329000000002        0.0000000000000000     
  0.26711221000000002        9.8671499999999995E-002   0.0000000000000000     
  0.90191560000000004       0.26787448000000003        0.0000000000000000     
  0.90118569000000004       0.73039821000000005        0.0000000000000000     
  0.73122947000000005        9.8017859999999998E-002   0.0000000000000000     
   9.8084400000000002E-002  0.73212551999999997        0.0000000000000000     
  0.26957329000000002       0.90221516999999996        0.0000000000000000     
  0.39283522999999998       0.25360379000000000        0.0000000000000000     
  0.74480864000000002       0.60495284999999999        0.0000000000000000     
  0.25505132000000003       0.60593640999999998        0.0000000000000000     
  0.52159297999999998       0.40671636000000000        0.0000000000000000     
  0.40768852000000000       0.47699891000000000        0.0000000000000000     
   9.1467049999999994E-002   9.1876959999999994E-002   0.0000000000000000     
  0.90842484999999995       0.90819225000000003        0.0000000000000000     
  0.90820104999999995        9.1566729999999999E-002   0.0000000000000000     
   9.1807449999999999E-002  0.90843574000000005        0.0000000000000000     
  0.27098960000000000       0.20527094000000001        0.0000000000000000     
  0.73457293999999995       0.79835387000000002        0.0000000000000000     
  0.79817773000000003       0.25713470999999999        0.0000000000000000     
  0.20747797000000001       0.72863946000000002        0.0000000000000000     
  0.20175195000000001       0.27583914999999998        0.0000000000000000     
  0.79603889000000005       0.72159035000000005        0.0000000000000000     
  0.71761666000000002       0.19748431999999999        0.0000000000000000     
  0.28462607000000001       0.80251899999999998        0.0000000000000000     
  0.69134598999999997       0.49261972999999998        0.0000000000000000     
  0.44720578999999999       0.58582935999999997        0.0000000000000000     
  0.24242269999999999       0.37228174000000003        0.0000000000000000     
  0.38265623999999998       0.93072131999999996        0.0000000000000000     
  0.60971754000000000       0.91988369000000003        0.0000000000000000     
   7.9163609999999995E-002  0.60979116000000000        0.0000000000000000     
  0.92010649000000000       0.61081183999999999        0.0000000000000000     
  0.61954008999999999        7.1530830000000004E-002   0.0000000000000000     
  0.91882012999999996       0.38917363999999999        0.0000000000000000     
  0.39086346000000000        8.0652249999999995E-002   0.0000000000000000     
   7.9183480000000001E-002  0.38966213000000000        0.0000000000000000     
  0.59114111999999996       0.49294315000000000        0.0000000000000000     
  0.63337980999999999       0.64485914000000000        0.0000000000000000     
  0.50012352000000004       0.29676539000000002        0.0000000000000000     
  0.82552601000000003       0.92753492000000004        0.0000000000000000     
  0.92774772999999999       0.82498556999999995        0.0000000000000000     
   7.1970870000000006E-002  0.17510291000000000        0.0000000000000000     
  0.17422821999999999        7.2635640000000001E-002   0.0000000000000000     
  0.82510813000000005        7.2134840000000006E-002   0.0000000000000000     
  0.92754665000000003       0.17446275999999999        0.0000000000000000     
  0.17501022999999999       0.92789951999999998        0.0000000000000000     
   7.2464680000000004E-002  0.82554053000000005        0.0000000000000000     
  0.30731587999999999       0.50885354999999999        0.0000000000000000     
  0.59033407999999998       0.22171178999999999        0.0000000000000000     
  0.40109191999999999       0.78725542000000004        0.0000000000000000     
  0.35420917000000002       0.63754104000000000        0.0000000000000000     
  0.15983976999999999       0.56665573000000002        0.0000000000000000     
  0.84108459999999996       0.56757886999999996        0.0000000000000000     
  0.83902096000000004       0.43344338999999998        0.0000000000000000     
  0.43230028999999998       0.16004268999999999        0.0000000000000000     
  0.57536027999999995       0.83041363999999995        0.0000000000000000     
  0.15771898000000001       0.42747892999999998        0.0000000000000000     
  0.34021692999999997       0.34221559000000001        0.0000000000000000     
  0.56002271999999997       0.57501117999999996        0.0000000000000000     
  0.65344329000000001       0.78147597999999996        0.0000000000000000     
   0.0000000000000000        0.0000000000000000        0.0000000000000000     
   1.0000000000000000        0.0000000000000000        0.0000000000000000     
   1.0000000000000000        1.0000000000000000        0.0000000000000000     
   0.0000000000000000        1.0000000000000000        0.0000000000000000     
  0.11111111000000000        0.0000000000000000        0.0000000000000000     
  0.22222222000000000        0.0000000000000000        0.0000000000000000     
  0.33333332999999998        0.0000000000000000        0.0000000000000000     
  0.44444444000000000        0.0000000000000000        0.0000000000000000     
  0.55555555999999995        0.0000000000000000        0.0000000000000000     
  0.66666667000000002        0.0000000000000000        0.0000000000000000     
  0.77777777999999997        0.0000000000000000        0.0000000000000000     
  0.88888889000000004        0.0000000000000000        0.0000000000000000     
   1.0000000000000000       0.11111111000000000        0.0000000000000000     
   1.0000000000000000       0.22222222000000000        0.0000000000000000     
   1.0000000000000000       0.33333332999999998        0.0000000000000000     
   1.0000000000000000       0.44444444000000000        0.0000000000000000     
   1.0000000000000000       0.55555555999999995        0.0000000000000000     
   1.0000000000000000       0.66666667000000002        0.0000000000000000     
   1.0000000000000000       0.77777777999999997        0.0000000000000000     
   1.0000000000000000       0.88888889000000004        0.0000000000000000     
  0.88888889000000004        1.0000000000000000        0.0000000000000000     
  0.77777777999999997        1.0000000000000000        0.0000000000000000     
  0.66666667000000002        1.0000000000000000        0.0000000000000000     
  0.55555555999999995        1.0000000000000000        0.0000000000000000     
  0.44444444000000000        1.0000000000000000        0.0000000000000000     
  0.33333332999999998        1.0000000000000000        0.0000000000000000     
  0.22222222000000000        1.0000000000000000        0.0000000000000000     
  0.11111111000000000        1.0000000000000000        0.0000000000000000     
   0.0000000000000000       0.11111111000000000        0.0000000000000000     
   0.0000000000000000       0.22222222000000000        0.0000000000000000     
[...]
 CELL_DATA         354
 SCALARS U float
 LOOKUP_TABLE default
    0.10309789479293392928E-02
    0.19511223092422078085E-01
    0.42594367684798774276E-01
    0.21187460842610927880E+00
    0.12308627178780873722E-02
    0.31714160524243272844E-02
    0.81547379796173186106E-01
    0.31350683323442775016E-02
    0.10608798153558933464E+00
    0.22077003455711857738E+00
    0.42577497056894131333E+00
    0.41368858316590828572E+00
    0.50437463603067345108E+00
    0.57369383051646183347E+00
    0.55335017358727789372E+00
    0.54844689297992510468E+00
    0.32892062499731011815E+00
    0.14140802062442120457E+00
    0.19981019126670562097E-01
    0.95313740917326833513E-01
    0.19512192718337047215E-01
    0.18398863155119807300E-01
    0.93089954619530665414E-01
    0.18767890278055740505E-01
    0.93336249799291573503E-01
    0.57155075206943906085E-01
    0.38345402188368911400E-01
    0.56654357519676602772E-01
    0.38243938467467167297E-01
    0.44720688978805468727E-02
    0.30991075508600500997E-02
    0.44678387703563290922E-02
    0.32240172894318478748E-02
    0.29159096658886995979E-02
    0.59483080688397622568E-02
    0.47466665441257159183E-02
    0.13676273159819282016E-01
    0.68727031221461967747E-02
    0.12104717690722824937E-02
    0.18837379012731077059E-02
    0.99542023690269809504E-03
    0.56149718892615997547E-03
    0.71468917909402293782E-03
    0.55717869006415845449E-03
    0.75137367467530298808E-03
    0.40327317344546599696E-03
    0.23093231631396396626E-02
    0.67460396943213706954E-03
    0.17388761242366879145E-01
    0.55944692549037625118E-01
    0.14513200595410213900E+00
    0.81882868199425140610E-01
    0.10050691502062176173E-02
    0.85832387164373031251E-04
    0.98933754284650436521E-03
    0.83224988222891269313E-04
    0.98922594204904406787E-03
    0.70172887140574952049E-03
    0.14875362154494300212E-02
    0.70184521323927051995E-03
    0.14892688679291475780E-02
    0.10158719337351881321E-02
    0.19205972081056650949E-02
    0.11319411280221974674E-02
    0.50987439966451381448E-02
    0.71919303378774317864E-02
    0.33403168946232388026E-01
    0.31793072930320562253E-01
    0.49340984760076356253E+00
    0.82198722735486584590E+00
    0.86970139951210079232E+00
    0.64399942941729215740E+00
    0.86801953068576120920E+00
    0.80836913859938330784E+00
    0.82688899903972512551E+00
    0.75335945926783409732E+00
    0.81904349418239386083E+00
    0.88028701540031484285E+00
    0.19232548988825282077E+00
    0.54602199501404757864E+00
    0.69946838979576750339E-01
    0.15520336916483387646E+00
    0.57281216365025366954E+00
    0.70039925357595136934E-01
    0.49261819774003662298E+00
    0.26951401214353212094E-01
    0.11355785703718770940E-01
    0.25077803287629024664E+00
    0.43354639129771588291E+00
    0.13744657593648443306E+00
    0.14243039218476045288E-01
    0.91321396566981100085E-01
    0.10348562487158668999E+00
    0.19584332860572942203E-01
    0.17795554032378417542E-01
    0.17366846376044031003E-01
    0.20868019824951578034E+00
    0.66765709533051575963E+00
    0.82370878233247868394E+00
    0.85479633663633514118E+00
    0.85662830980489412802E+00
    0.75351379318764288850E+00
    0.86056034617121635044E+00
    0.25479531364685858996E+00
    0.21216201791041500169E+00
    0.39100423501719210051E-01
    0.41277043238585144069E-01
    0.33137884039552484294E+00
    0.32822603614509343606E+00
    0.18756964669855585859E+00
    0.21243765678537952779E-01
    0.10521122995196913186E+00
    0.22149025799832203210E-01
    0.24448395272200933170E-01
    0.76029092099431538898E+00
    0.10374255682351701813E+00
    0.24293822315956437041E+00
    0.53626381192203043113E+00
    0.60832972113394823133E+00
    0.10683037553545220166E+00
    0.17362004621167129170E+00
    0.41931929049794681996E-02
    0.63170815527637397269E-02
    0.77294105681996374407E-02
    0.10072342102774540368E-01
    0.22354155417516747423E-01
    0.53402940449242776097E-02
    0.61124039817183600104E-02
    0.18499291726207449382E-01
    0.19608065670161486937E+00
    0.18487429751288676771E-01
    0.34113188241717579130E+00
    0.16905862028285001397E+00
    0.17568186980424355809E-01
    0.20556255336700617747E-01
    0.62251481269519337580E+00
    0.82603551917234518953E+00
    0.28070276973944308097E+00
    0.79711361206078845676E+00
    0.70487937945341005985E+00
    0.57730509463612211807E+00
    0.30781146334254849695E+00
    0.31248417895589218791E-02
    0.32338502209763482498E-02
    0.30531690005898043556E-02
    0.49869978713092347894E-02
    0.31780658249360169490E-02
    0.24523249937097560576E-02
    0.26440684202001137060E-02
    0.75237828791429484099E+00
    0.45992031181784187588E+00
    0.17362893877143603660E+00
    0.55140005724560570144E+00
    0.13403184027975581505E+00
    0.72100214254017624960E+00
    0.87111902458695300577E+00
    0.86677055202063302275E+00
    0.83416188094521870333E+00
    0.89650763109268505335E+00
    0.89197311888411412450E+00
    0.68732541027526905530E+00
    0.84482242489939651797E+00
    0.87991182280064905719E+00
    0.86190731911516804686E+00
    0.78818095325686809982E+00
    0.35617469455311505204E-02
    0.94349583117764746626E-02
    0.30622930974103079044E-02
    0.64188388052200655992E-02
    0.97066840447915456180E-02
    0.71866936081265431202E+00
    0.78810739914685012941E+00
    0.86747178168550098665E+00
    0.79365216261659554675E+00
    0.83623068044877224558E+00
    0.13711479474329884773E-01
    0.19208595485634188949E+00
    0.22693794672290626413E+00
    0.13322114723842766459E-01
    0.24327707989624618862E-01
    0.66114839568549765847E+00
    0.64478970285484693559E+00
    0.81631928257223840273E+00
    0.60085815848040491360E+00
    0.84427727916774120143E+00
    0.46200732844086836448E-01
    0.30617038437862625910E+00
    0.62868742226184312627E-01
    0.47419466892186130924E-01
    0.25461351604515886082E+00
    0.53901894133409156140E+00
    0.63027432208772049549E+00
    0.31051540787117670739E+00
    0.78236755885418352019E+00
    0.18108830928258842774E+00
    0.59589240705442587942E-02
    0.72560025820761847593E-01
    0.78383285591674522336E-02
    0.52703553402379064302E-02
    0.87574822370757778728E-02
    0.14918305099201126240E-02
    0.27862514602812037817E-02
    0.27012055189087986681E-02
    0.11475842078724530788E-02
    0.22943111027667151096E-02
    0.15425476730706898232E-01
    0.26631818765158454809E+00
    0.36718928272697189119E-01
    0.39767556897316075348E+00
    0.27917897897848592548E+00
    0.58632882942257114056E+00
    0.46861917280836534738E+00
    0.86206090979976379707E+00
    0.83027440207994773758E+00
    0.87377404504516931194E+00
    0.83770770903994629109E+00
    0.81394981401857524617E+00
    0.87270302164213930940E+00
    0.86186502193851155518E+00
    0.21097416066948926350E-01
    0.80887047360756348519E-03
    0.28823441317603736705E-02
    0.66077401558540960202E+00
    0.69648358621143088842E-01
    0.39213921964075004745E+00
    0.10708923350231062000E-02
    0.12610058682578286372E-02
    0.22172318361974386117E-02
    0.46134151406672149059E-02
    0.25168550901323080010E-02
    0.21890922709412894906E-02
    0.60256721436153541302E-02
    0.13016281018901999095E-01
    0.67930175518666299772E-01
    0.17230572885612646661E+00
    0.38082409652695281554E+00
    0.54439191667127007079E+00
    0.80535766318504908856E+00
    0.73406413196605446725E+00
    0.19488887954013636716E+00
    0.63189770326403316147E+00
    0.53909255014932411232E+00
    0.60505024244094159080E-01
    0.63814351564914190140E-01
    0.66526328677533053124E+00
    0.81217179784345516769E+00
    0.79978263463154411483E-02
    0.15374207732168189769E-02
    0.27731467647355142678E-02
    0.11407521420592137140E+00
    0.16909152586870345499E-02
    0.10722830335524375679E-02
    0.60156761524061430624E+00
    0.45193971202986732427E+00
    0.84416702707563545660E-01
    0.75209995937752305295E+00
    0.27693460235800326785E+00
    0.21960201755212233055E+00
    0.22645589360189236766E-01
    0.75620905733701764689E-02
    0.59736460019961619070E-02
    0.60192784183676772969E+00
    0.86248060732625142499E+00
    0.54292179135722229422E+00
    0.55606123153126244679E-02
    0.29017466577826223940E-02
    0.37007729628425163962E-02
    0.39174394400037365616E-02
    0.23592923826165875315E-02
    0.32767401952658345259E-02
    0.78741802870872712461E+00
    0.16184880663135658985E+00
    0.56607451347543580322E+00
    0.76264435840624589247E+00
    0.27223321434430980403E+00
    0.83560889309417585302E+00
    0.85839728569992801432E+00
    0.62438671731640005280E+00
    0.72151694587056211527E-01
    0.57954318050520436945E+00
    0.43676645150184090216E+00
    0.73112733764222823107E-01
    0.45760106291282892643E+00
    0.25112641728894646853E+00
    0.21927827732493031937E-01
    0.86571901900346115433E+00
    0.84661230179520796657E+00
    0.10854057708570145121E-02
    0.39452035444113098608E-02
    0.73760892072989112794E-02
    0.70017039891950832303E-02
    0.19427295324987198244E+00
    0.38640382200223387377E-01
    0.33288226348744454942E-02
    0.33451834074838195272E-02
    0.54703776520430880126E+00
    0.26383059287869256582E-01
    0.14069640486206090590E-01
    0.50155709336335574378E+00
    0.56277636186419675510E-02
    0.55404408248317504881E+00
    0.98299208910298294106E-01
    0.34300155941303571254E-02
    0.68040281627280851939E+00
    0.75727397742251889579E+00
    0.89651167953539656619E+00
    0.21929010103654256181E+00
    0.82180904583462854873E+00
    0.44559068782302748910E-02
    0.56720372679228232490E-02
    0.15823845675647890685E+00
    0.55636544885777294844E+00
    0.80699167193132625986E+00
    0.12160372397466477287E-01
    0.82657128397940260456E+00
    0.89695686477036895567E+00
    0.36881044274379637046E-02
    0.11007420198591601895E-01
    0.38579417341454434786E-03
    0.47103410686196272293E-04
    0.53248040871323079181E-03
    0.32664151732833055625E-04
    0.53951887497233910751E-01
    0.61601554593590499009E-01
    0.32011724725454465679E+00
    0.20181436037224356750E+00
    0.63096993788417656771E-03
    0.59463222251345737232E-02
    0.65486655371546007021E-01
    0.17739946224847094602E+00
    0.21192136024295510355E+00
    0.15976350234598274414E+00
    0.17201454063430564323E-01
    0.76754821080894319548E-04
    0.13218566284762067286E-03
    0.10759080237064768445E-03
    0.49699495178807781462E-04
    0.29865205261778415949E-04
    0.20520710450529309338E-03
    0.30416746217573611619E-02
    0.63213575015696058315E-02
    0.34864881790656920054E-03
    0.22766940314279093116E-04
    0.71294664082420874810E-04
    0.52979711591888455427E-03
    0.23465619690185034185E-01
    0.12389533216901281454E+00
    0.43276132564839163715E-05
    0.24983935404808119497E-06
    0.25696040365532315856E-06
    0.30304513866738067485E-05
    0.93386901292651815893E-04
    0.42707610010485688723E-02
    0.48212419745066209531E-01
