# vtk DataFile Version 3.0
LAPLACIEN  2D
ASCII
DATASET UNSTRUCTURED_GRID
 POINTS         391  float
  0.50371505999999999       0.50367786999999997        0.0000000000000000     
  0.29013556000000001       0.29014535000000002        0.0000000000000000     
  0.70165584999999997       0.71206597999999999        0.0000000000000000     
  0.70304188999999995       0.30176619999999998        0.0000000000000000     
  0.30920671999999999       0.71149227999999998        0.0000000000000000     
  0.79044983999999996       0.49884783999999999        0.0000000000000000     
  0.49102621000000002       0.20968644000000000        0.0000000000000000     
  0.49912957000000002       0.77208717000000004        0.0000000000000000     
  0.21724072999999999       0.48989389000000000        0.0000000000000000     
  0.83255933999999998       0.83046598000000005        0.0000000000000000     
  0.16646774000000000       0.17015694000000001        0.0000000000000000     
  0.83054514999999995       0.16736480000000001        0.0000000000000000     
  0.16953130999999999       0.83265739000000005        0.0000000000000000     
  0.42166445000000002       0.36345201999999999        0.0000000000000000     
  0.64462200999999997       0.56347807999999999        0.0000000000000000     
  0.35324633999999999       0.56311191000000005        0.0000000000000000     
  0.65456411000000003       0.84856860999999995        0.0000000000000000     
  0.35141477999999998       0.15563974000000000        0.0000000000000000     
  0.15290967000000000       0.35206625000000003        0.0000000000000000     
  0.82942241000000005       0.34936866000000000        0.0000000000000000     
  0.84390527000000004       0.64441694999999999        0.0000000000000000     
  0.63699174999999997       0.14284276000000001        0.0000000000000000     
  0.15620682999999999       0.64648446999999998        0.0000000000000000     
  0.36426062999999997       0.85756310999999996        0.0000000000000000     
  0.63489340999999999       0.40519052000000000        0.0000000000000000     
  0.52518872999999999       0.65957078000000002        0.0000000000000000     
  0.32158959999999998       0.42298103999999997        0.0000000000000000     
  0.58861710000000000       0.31711036999999997        0.0000000000000000     
  0.42078418000000001       0.69497151999999995        0.0000000000000000     
  0.48608786999999998       0.89334152000000000        0.0000000000000000     
   9.7084320000000002E-002  0.50000000000000000        0.0000000000000000     
  0.90291568000000000       0.50000000000000000        0.0000000000000000     
  0.51392453000000005       0.10668648999999999        0.0000000000000000     
  0.59792566999999996       0.73122754000000001        0.0000000000000000     
  0.74510058999999995       0.41124730999999998        0.0000000000000000     
  0.73212551999999997       0.90191560000000004        0.0000000000000000     
   9.7784830000000003E-002  0.26957329000000002        0.0000000000000000     
  0.26711221000000002        9.8671499999999995E-002   0.0000000000000000     
  0.90191560000000004       0.26787448000000003        0.0000000000000000     
  0.90118569000000004       0.73039821000000005        0.0000000000000000     
  0.73122947000000005        9.8017859999999998E-002   0.0000000000000000     
   9.8084400000000002E-002  0.73212551999999997        0.0000000000000000     
  0.26957329000000002       0.90221516999999996        0.0000000000000000     
  0.39283522999999998       0.25360379000000000        0.0000000000000000     
  0.74480864000000002       0.60495284999999999        0.0000000000000000     
  0.25505132000000003       0.60593640999999998        0.0000000000000000     
  0.52159297999999998       0.40671636000000000        0.0000000000000000     
  0.40768852000000000       0.47699891000000000        0.0000000000000000     
   9.1467049999999994E-002   9.1876959999999994E-002   0.0000000000000000     
  0.90842484999999995       0.90819225000000003        0.0000000000000000     
  0.90820104999999995        9.1566729999999999E-002   0.0000000000000000     
   9.1807449999999999E-002  0.90843574000000005        0.0000000000000000     
  0.27098960000000000       0.20527094000000001        0.0000000000000000     
  0.73457293999999995       0.79835387000000002        0.0000000000000000     
  0.79817773000000003       0.25713470999999999        0.0000000000000000     
  0.20747797000000001       0.72863946000000002        0.0000000000000000     
  0.20175195000000001       0.27583914999999998        0.0000000000000000     
  0.79603889000000005       0.72159035000000005        0.0000000000000000     
  0.71761666000000002       0.19748431999999999        0.0000000000000000     
  0.28462607000000001       0.80251899999999998        0.0000000000000000     
  0.69134598999999997       0.49261972999999998        0.0000000000000000     
  0.44720578999999999       0.58582935999999997        0.0000000000000000     
  0.24242269999999999       0.37228174000000003        0.0000000000000000     
  0.38265623999999998       0.93072131999999996        0.0000000000000000     
  0.60971754000000000       0.91988369000000003        0.0000000000000000     
   7.9163609999999995E-002  0.60979116000000000        0.0000000000000000     
  0.92010649000000000       0.61081183999999999        0.0000000000000000     
  0.61954008999999999        7.1530830000000004E-002   0.0000000000000000     
  0.91882012999999996       0.38917363999999999        0.0000000000000000     
  0.39086346000000000        8.0652249999999995E-002   0.0000000000000000     
   7.9183480000000001E-002  0.38966213000000000        0.0000000000000000     
  0.59114111999999996       0.49294315000000000        0.0000000000000000     
  0.63337980999999999       0.64485914000000000        0.0000000000000000     
  0.50012352000000004       0.29676539000000002        0.0000000000000000     
  0.82552601000000003       0.92753492000000004        0.0000000000000000     
  0.92774772999999999       0.82498556999999995        0.0000000000000000     
   7.1970870000000006E-002  0.17510291000000000        0.0000000000000000     
  0.17422821999999999        7.2635640000000001E-002   0.0000000000000000     
  0.82510813000000005        7.2134840000000006E-002   0.0000000000000000     
  0.92754665000000003       0.17446275999999999        0.0000000000000000     
  0.17501022999999999       0.92789951999999998        0.0000000000000000     
   7.2464680000000004E-002  0.82554053000000005        0.0000000000000000     
  0.30731587999999999       0.50885354999999999        0.0000000000000000     
  0.59033407999999998       0.22171178999999999        0.0000000000000000     
  0.40109191999999999       0.78725542000000004        0.0000000000000000     
  0.35420917000000002       0.63754104000000000        0.0000000000000000     
  0.15983976999999999       0.56665573000000002        0.0000000000000000     
  0.84108459999999996       0.56757886999999996        0.0000000000000000     
  0.83902096000000004       0.43344338999999998        0.0000000000000000     
  0.43230028999999998       0.16004268999999999        0.0000000000000000     
  0.57536027999999995       0.83041363999999995        0.0000000000000000     
  0.15771898000000001       0.42747892999999998        0.0000000000000000     
  0.34021692999999997       0.34221559000000001        0.0000000000000000     
  0.56002271999999997       0.57501117999999996        0.0000000000000000     
  0.65344329000000001       0.78147597999999996        0.0000000000000000     
   0.0000000000000000        0.0000000000000000        0.0000000000000000     
   1.0000000000000000        0.0000000000000000        0.0000000000000000     
   1.0000000000000000        1.0000000000000000        0.0000000000000000     
   0.0000000000000000        1.0000000000000000        0.0000000000000000     
  0.11111111000000000        0.0000000000000000        0.0000000000000000     
  0.22222222000000000        0.0000000000000000        0.0000000000000000     
  0.33333332999999998        0.0000000000000000        0.0000000000000000     
  0.44444444000000000        0.0000000000000000        0.0000000000000000     
  0.55555555999999995        0.0000000000000000        0.0000000000000000     
  0.66666667000000002        0.0000000000000000        0.0000000000000000     
  0.77777777999999997        0.0000000000000000        0.0000000000000000     
  0.88888889000000004        0.0000000000000000        0.0000000000000000     
   1.0000000000000000       0.11111111000000000        0.0000000000000000     
   1.0000000000000000       0.22222222000000000        0.0000000000000000     
   1.0000000000000000       0.33333332999999998        0.0000000000000000     
   1.0000000000000000       0.44444444000000000        0.0000000000000000     
   1.0000000000000000       0.55555555999999995        0.0000000000000000     
   1.0000000000000000       0.66666667000000002        0.0000000000000000     
   1.0000000000000000       0.77777777999999997        0.0000000000000000     
   1.0000000000000000       0.88888889000000004        0.0000000000000000     
  0.88888889000000004        1.0000000000000000        0.0000000000000000     
  0.77777777999999997        1.0000000000000000        0.0000000000000000     
  0.66666667000000002        1.0000000000000000        0.0000000000000000     
  0.55555555999999995        1.0000000000000000        0.0000000000000000     
  0.44444444000000000        1.0000000000000000        0.0000000000000000     
  0.33333332999999998        1.0000000000000000        0.0000000000000000     
  0.22222222000000000        1.0000000000000000        0.0000000000000000     
  0.11111111000000000        1.0000000000000000        0.0000000000000000     
   0.0000000000000000       0.11111111000000000        0.0000000000000000     
   0.0000000000000000       0.22222222000000000        0.0000000000000000     
[...]
 CELL_DATA         354
 SCALARS U float
 LOOKUP_TABLE default
    0.10847569888071892114E-02
    0.19947268040896259239E-01
    0.42965764051303173554E-01
    0.21250352110696771324E+00
    0.12959726337081829868E-02
    0.33305220212421376459E-02
    0.82724994520342376436E-01
    0.32913088151780736483E-02
    0.10789136004093871635E+00
    0.22218439089354471982E+00
    0.42728333121030281916E+00
    0.41510005496032997829E+00
    0.50572003764738904241E+00
    0.57444921847748320332E+00
    0.55413642442431865209E+00
    0.54905278013868263898E+00
    0.32999190041481873958E+00
    0.14301399886805821193E+00
    0.20444793287655801256E-01
    0.96342235385540000991E-01
    0.19948171784936588602E-01
    0.18768599968895897934E-01
    0.93856947105492638528E-01
    0.19168396396630257156E-01
    0.94164486721710252692E-01
    0.57950399726221311913E-01
    0.38942892247923535654E-01
    0.57360463393158304946E-01
    0.38839691802132682297E-01
    0.46511934260879458231E-02
    0.32047664761570833318E-02
    0.46461813905058560459E-02
    0.33352253798646053044E-02
    0.30048023747565122746E-02
    0.61214227384099716839E-02
    0.48945695850953546344E-02
    0.14012704570488320605E-01
    0.70511679028985368642E-02
    0.12621556691163474465E-02
    0.19476822838789820125E-02
    0.10360252428625222904E-02
    0.59160181429833381614E-03
    0.75022574163723543695E-03
    0.58701892633736209217E-03
    0.78930843831990680440E-03
    0.42239508467257282391E-03
    0.23723772296868465316E-02
    0.70633865146154967574E-03
    0.17631159768179319181E-01
    0.56386295629150699760E-01
    0.14594166226425928090E+00
    0.82451534735290099576E-01
    0.10569471147696353399E-02
    0.92320324879787823156E-04
    0.10494567286578764843E-02
    0.89510174256249378779E-04
    0.10493329363082005024E-02
    0.73750678168910913535E-03
    0.15563509878787249677E-02
    0.73763356462735248532E-03
    0.15581840565646353555E-02
    0.10587519829080803673E-02
    0.19845605464417102534E-02
    0.11782748383245822670E-02
    0.52531034831362934112E-02
    0.74065267699209022881E-02
    0.33803212958264758359E-01
    0.32177919216534900393E-01
    0.49675172127786526577E+00
    0.82303351939503510692E+00
    0.87014479152961454744E+00
    0.64757105452380536725E+00
    0.86883626401361035985E+00
    0.80878410554789614828E+00
    0.82825010510422814036E+00
    0.75684431201054302996E+00
    0.82069954538042211301E+00
    0.88007698512262666490E+00
    0.19851099523133164393E+00
    0.55051809962774433949E+00
    0.71337149382359951733E-01
    0.15880659112377551456E+00
    0.57930254743979792131E+00
    0.71473833574888762099E-01
    0.49536712435335306104E+00
    0.27696034693751286904E-01
    0.11635263028422659914E-01
    0.25353880359887387419E+00
    0.43519392848718219113E+00
    0.13960814393638373843E+00
    0.14679066722968613090E-01
    0.94065780337172055781E-01
    0.10668521605119604678E+00
    0.20260971612771794259E-01
    0.18399023085567858815E-01
    0.17967102291244180234E-01
    0.21253187536745332675E+00
    0.67024858699121436789E+00
    0.82462568856414497631E+00
    0.85585570310763958712E+00
    0.85713192885981603908E+00
    0.75700419923781225862E+00
    0.86094817199526063600E+00
    0.25767531172446411780E+00
    0.21478639700552426550E+00
    0.40299262194912505164E-01
    0.42586936883638466800E-01
    0.33521592599540572799E+00
    0.33213003527656459468E+00
    0.19157268827794088351E+00
    0.21866091226315872986E-01
    0.10754206292998899630E+00
    0.22800122249154539805E-01
    0.25219223206800783776E-01
    0.76306395924805170417E+00
    0.10492194935777636455E+00
    0.24681240570042367599E+00
    0.54103473895847475905E+00
    0.61194739804921804982E+00
    0.10812764605517447003E+00
    0.17706927451084467084E+00
    0.43309653263574818260E-02
    0.65215347553014887255E-02
    0.79458461253781795253E-02
    0.10429627109693770035E-01
    0.22957463652864405768E-01
    0.55008911180601536076E-02
    0.62963460072501774289E-02
    0.18993066579910383024E-01
    0.19977387615517053221E+00
    0.18971319289030539462E-01
    0.34529076119303231396E+00
    0.17215144749588193185E+00
    0.18006686031482168481E-01
    0.21138960980363590697E-01
    0.62538744695220838121E+00
    0.82719033204788561253E+00
    0.28357088021753268370E+00
    0.79853613939236345320E+00
    0.70738409910749411313E+00
    0.58126034409591120777E+00
    0.31024224196809063736E+00
    0.32312123050718707766E-02
    0.33247439163923541566E-02
    0.31547254304804344359E-02
    0.51664267495791253368E-02
    0.32845036545757631992E-02
    0.25400566152070755584E-02
    0.27369163744968053563E-02
    0.75380316891146315061E+00
    0.46380247741650215687E+00
    0.17580980521127451133E+00
    0.55360311676089335453E+00
    0.13608830076488331873E+00
    0.72331468241878493775E+00
    0.87142798020230127776E+00
    0.86708205858897313689E+00
    0.83493996361368671977E+00
    0.89680817972238036084E+00
    0.89177455806777117253E+00
    0.69148697031782169198E+00
    0.84495350981721784045E+00
    0.87998808180122822797E+00
    0.86247054107303999793E+00
    0.79178243468235720570E+00
    0.37222157011747520131E-02
    0.98145616318871253814E-02
    0.32107206026099821203E-02
    0.67212427440491023800E-02
    0.10128880298837940332E-01
    0.72103190256474691822E+00
    0.78960723061877602369E+00
    0.86823479083154175839E+00
    0.79483324669060539946E+00
    0.83776850010911507738E+00
    0.14321436417527479493E-01
    0.19623995821356723934E+00
    0.23036045180084033235E+00
    0.13899124983759210059E-01
    0.25338139049962491584E-01
    0.66417337828854727810E+00
    0.64719819936814193539E+00
    0.81742458293478459375E+00
    0.60362158346310845758E+00
    0.84554179843790666649E+00
    0.47432197856361803245E-01
    0.31028738340651346173E+00
    0.64534920346973015381E-01
    0.48731037353949839541E-01
    0.25923014352454226694E+00
    0.54342694469592534023E+00
    0.63341750084048442648E+00
    0.31464119249216454532E+00
    0.78505424718098926196E+00
    0.18387442645902424276E+00
    0.61786291217042852569E-02
    0.73755895633094745167E-01
    0.81316266173942636231E-02
    0.54750537854739572685E-02
    0.91056053581593920238E-02
    0.15534689415476713326E-02
    0.28608842229090880593E-02
    0.27904086867015271030E-02
    0.11907332084790905706E-02
    0.23802228024607059373E-02
    0.15885188511983533433E-01
    0.26904270070163344153E+00
    0.37687621987695291148E-01
    0.40131641452144362070E+00
    0.28179732310850663657E+00
    0.59064697568235502434E+00
    0.47201617473801754654E+00
    0.86302105448928534415E+00
    0.83232849779306061766E+00
    0.87431893756406930951E+00
    0.83818907285230703774E+00
    0.81562146685118075418E+00
    0.87344325860793103899E+00
    0.86162676071434862735E+00
    0.21599156261739495960E-01
    0.85815851139564483085E-03
    0.30388127111734882652E-02
    0.66492710848583880257E+00
    0.71097980928122736510E-01
    0.39765536470772272493E+00
    0.11222527749122695670E-02
    0.13254415992787617166E-02
    0.23114532984311250696E-02
    0.48317285189382018495E-02
    0.26288578955386055803E-02
    0.22936680338361383272E-02
    0.62816182537370670452E-02
    0.13544157487165260634E-01
    0.70105523932453575608E-01
    0.17476263877597594809E+00
    0.38566508867334897692E+00
    0.54656494575608904896E+00
    0.80722497055338859884E+00
    0.73575449626672861925E+00
    0.19712742426195145606E+00
    0.63467343754188465521E+00
    0.54556969621866291398E+00
    0.61774412491699154382E-01
    0.65211015020821438970E-01
    0.66803873784916212308E+00
    0.81354477029236083041E+00
    0.83002499799133648561E-02
    0.16066606736474598523E-02
    0.28680801336915503000E-02
    0.11556884288187981025E+00
    0.17867955831623752536E-02
    0.11386566645113875822E-02
    0.60558387095699961478E+00
    0.45484926936547148690E+00
    0.85733751527607177101E-01
    0.75331645843277139640E+00
    0.27989420230351674812E+00
    0.22244539471853222445E+00
    0.23266731915435493599E-01
    0.78459072213046994471E-02
    0.61635498816841032682E-02
    0.60521956723209546780E+00
    0.86299096348529236167E+00
    0.54510358479737552884E+00
    0.57573339769020565396E-02
    0.30072937166735667046E-02
    0.38242047377498094782E-02
    0.40274709233505574801E-02
    0.24233283557396623209E-02
    0.33693014760717079903E-02
    0.78833999850184777181E+00
    0.16334058826320876912E+00
    0.56908192699390858227E+00
    0.76442016567661674742E+00
    0.27515007551206033254E+00
    0.83633974490217399822E+00
    0.86020303411096821211E+00
    0.62894282942173429518E+00
    0.73325076402201053161E-01
    0.58281750190036230030E+00
    0.44300209677240975914E+00
    0.74342350892149203223E-01
    0.45932990140109614119E+00
    0.25430339220015191204E+00
    0.22479620465799692725E-01
    0.86585146379600463895E+00
    0.84689700378100329914E+00
    0.11433352579266855328E-02
    0.41425197416035007200E-02
    0.75730939611051662982E-02
    0.71971118893839700764E-02
    0.19778521476364180343E+00
    0.39490764997395046143E-01
    0.34328003825138441243E-02
    0.34551784874490448253E-02
    0.55119031866951839760E+00
    0.27157385963563044490E-01
    0.14632253529585980550E-01
    0.50443284864673731960E+00
    0.58250963559306539671E-02
    0.55941428069894172381E+00
    0.99839037978452865874E-01
    0.35517938461623694765E-02
    0.68296175806430703403E+00
    0.76064849751933405475E+00
    0.89647775086706449343E+00
    0.22232966650545707421E+00
    0.82238659809274450296E+00
    0.46685241200549220178E-02
    0.59053068953427894153E-02
    0.16076252265038187828E+00
    0.55894096195290521312E+00
    0.80838476088104882500E+00
    0.12650670115063138849E-01
    0.82778261862622426470E+00
    0.89726553442142420458E+00
    0.38936920738436488904E-02
    0.11491645140985494097E-01
    0.40914683927737723968E-03
    0.50608148034089151467E-04
    0.56202465917677539055E-03
    0.34994000594357249818E-04
    0.54283181727050565379E-01
    0.62090460563933067006E-01
    0.32112073952031056079E+00
    0.20237460929190972947E+00
    0.66701467746605553819E-03
    0.60665926689241651826E-02
    0.66482914528776790308E-01
    0.17882729343156955615E+00
    0.21318880735594988862E+00
    0.16064011458561947010E+00
    0.17361578071132838241E-01
    0.79460171957320834164E-04
    0.13531183171680541866E-03
    0.11003495010976564023E-03
    0.51273958390535039271E-04
    0.31224241194556695588E-04
    0.21448124743992915070E-03
    0.31436583411319418344E-02
    0.64863263677565619059E-02
    0.36717581245881893842E-03
    0.24575128002602936812E-04
    0.76300058847118419603E-04
    0.55703201714782119708E-03
    0.23779049547752128396E-01
    0.12486802206567855500E+00
    0.46781086084097446039E-05
    0.27792072376220960413E-06
    0.28241610722139220115E-06
    0.32221930502858980008E-05
    0.96484127030847951188E-04
    0.43929266056293653567E-02
    0.48791095286824889832E-01
