# vtk DataFile Version 3.0
LAPLACIEN  2D
ASCII
DATASET UNSTRUCTURED_GRID
 POINTS         391  float
  0.50371505999999999       0.50367786999999997        0.0000000000000000     
  0.29013556000000001       0.29014535000000002        0.0000000000000000     
  0.70165584999999997       0.71206597999999999        0.0000000000000000     
  0.70304188999999995       0.30176619999999998        0.0000000000000000     
  0.30920671999999999       0.71149227999999998        0.0000000000000000     
  0.79044983999999996       0.49884783999999999        0.0000000000000000     
  0.49102621000000002       0.20968644000000000        0.0000000000000000     
  0.49912957000000002       0.77208717000000004        0.0000000000000000     
  0.21724072999999999       0.48989389000000000        0.0000000000000000     
  0.83255933999999998       0.83046598000000005        0.0000000000000000     
  0.16646774000000000       0.17015694000000001        0.0000000000000000     
  0.83054514999999995       0.16736480000000001        0.0000000000000000     
  0.16953130999999999       0.83265739000000005        0.0000000000000000     
  0.42166445000000002       0.36345201999999999        0.0000000000000000     
  0.64462200999999997       0.56347807999999999        0.0000000000000000     
  0.35324633999999999       0.56311191000000005        0.0000000000000000     
  0.65456411000000003       0.84856860999999995        0.0000000000000000     
  0.35141477999999998       0.15563974000000000        0.0000000000000000     
  0.15290967000000000       0.35206625000000003        0.0000000000000000     
  0.82942241000000005       0.34936866000000000        0.0000000000000000     
  0.84390527000000004       0.64441694999999999        0.0000000000000000     
  0.63699174999999997       0.14284276000000001        0.0000000000000000     
  0.15620682999999999       0.64648446999999998        0.0000000000000000     
  0.36426062999999997       0.85756310999999996        0.0000000000000000     
  0.63489340999999999       0.40519052000000000        0.0000000000000000     
  0.52518872999999999       0.65957078000000002        0.0000000000000000     
  0.32158959999999998       0.42298103999999997        0.0000000000000000     
  0.58861710000000000       0.31711036999999997        0.0000000000000000     
  0.42078418000000001       0.69497151999999995        0.0000000000000000     
  0.48608786999999998       0.89334152000000000        0.0000000000000000     
   9.7084320000000002E-002  0.50000000000000000        0.0000000000000000     
  0.90291568000000000       0.50000000000000000        0.0000000000000000     
  0.51392453000000005       0.10668648999999999        0.0000000000000000     
  0.59792566999999996       0.73122754000000001        0.0000000000000000     
  0.74510058999999995       0.41124730999999998        0.0000000000000000     
  0.73212551999999997       0.90191560000000004        0.0000000000000000     
   9.7784830000000003E-002  0.26957329000000002        0.0000000000000000     
  0.26711221000000002        9.8671499999999995E-002   0.0000000000000000     
  0.90191560000000004       0.26787448000000003        0.0000000000000000     
  0.90118569000000004       0.73039821000000005        0.0000000000000000     
  0.73122947000000005        9.8017859999999998E-002   0.0000000000000000     
   9.8084400000000002E-002  0.73212551999999997        0.0000000000000000     
  0.26957329000000002       0.90221516999999996        0.0000000000000000     
  0.39283522999999998       0.25360379000000000        0.0000000000000000     
  0.74480864000000002       0.60495284999999999        0.0000000000000000     
  0.25505132000000003       0.60593640999999998        0.0000000000000000     
  0.52159297999999998       0.40671636000000000        0.0000000000000000     
  0.40768852000000000       0.47699891000000000        0.0000000000000000     
   9.1467049999999994E-002   9.1876959999999994E-002   0.0000000000000000     
  0.90842484999999995       0.90819225000000003        0.0000000000000000     
  0.90820104999999995        9.1566729999999999E-002   0.0000000000000000     
   9.1807449999999999E-002  0.90843574000000005        0.0000000000000000     
  0.27098960000000000       0.20527094000000001        0.0000000000000000     
  0.73457293999999995       0.79835387000000002        0.0000000000000000     
  0.79817773000000003       0.25713470999999999        0.0000000000000000     
  0.20747797000000001       0.72863946000000002        0.0000000000000000     
  0.20175195000000001       0.27583914999999998        0.0000000000000000     
  0.79603889000000005       0.72159035000000005        0.0000000000000000     
  0.71761666000000002       0.19748431999999999        0.0000000000000000     
  0.28462607000000001       0.80251899999999998        0.0000000000000000     
  0.69134598999999997       0.49261972999999998        0.0000000000000000     
  0.44720578999999999       0.58582935999999997        0.0000000000000000     
  0.24242269999999999       0.37228174000000003        0.0000000000000000     
  0.38265623999999998       0.93072131999999996        0.0000000000000000     
  0.60971754000000000       0.91988369000000003        0.0000000000000000     
   7.9163609999999995E-002  0.60979116000000000        0.0000000000000000     
  0.92010649000000000       0.61081183999999999        0.0000000000000000     
  0.61954008999999999        7.1530830000000004E-002   0.0000000000000000     
  0.91882012999999996       0.38917363999999999        0.0000000000000000     
  0.39086346000000000        8.0652249999999995E-002   0.0000000000000000     
   7.9183480000000001E-002  0.38966213000000000        0.0000000000000000     
  0.59114111999999996       0.49294315000000000        0.0000000000000000     
  0.63337980999999999       0.64485914000000000        0.0000000000000000     
  0.50012352000000004       0.29676539000000002        0.0000000000000000     
  0.82552601000000003       0.92753492000000004        0.0000000000000000     
  0.92774772999999999       0.82498556999999995        0.0000000000000000     
   7.1970870000000006E-002  0.17510291000000000        0.0000000000000000     
  0.17422821999999999        7.2635640000000001E-002   0.0000000000000000     
  0.82510813000000005        7.2134840000000006E-002   0.0000000000000000     
  0.92754665000000003       0.17446275999999999        0.0000000000000000     
  0.17501022999999999       0.92789951999999998        0.0000000000000000     
   7.2464680000000004E-002  0.82554053000000005        0.0000000000000000     
  0.30731587999999999       0.50885354999999999        0.0000000000000000     
  0.59033407999999998       0.22171178999999999        0.0000000000000000     
  0.40109191999999999       0.78725542000000004        0.0000000000000000     
  0.35420917000000002       0.63754104000000000        0.0000000000000000     
  0.15983976999999999       0.56665573000000002        0.0000000000000000     
  0.84108459999999996       0.56757886999999996        0.0000000000000000     
  0.83902096000000004       0.43344338999999998        0.0000000000000000     
  0.43230028999999998       0.16004268999999999        0.0000000000000000     
  0.57536027999999995       0.83041363999999995        0.0000000000000000     
  0.15771898000000001       0.42747892999999998        0.0000000000000000     
  0.34021692999999997       0.34221559000000001        0.0000000000000000     
  0.56002271999999997       0.57501117999999996        0.0000000000000000     
  0.65344329000000001       0.78147597999999996        0.0000000000000000     
   0.0000000000000000        0.0000000000000000        0.0000000000000000     
   1.0000000000000000        0.0000000000000000        0.0000000000000000     
   1.0000000000000000        1.0000000000000000        0.0000000000000000     
   0.0000000000000000        1.0000000000000000        0.0000000000000000     
  0.11111111000000000        0.0000000000000000        0.0000000000000000     
  0.22222222000000000        0.0000000000000000        0.0000000000000000     
  0.33333332999999998        0.0000000000000000        0.0000000000000000     
  0.44444444000000000        0.0000000000000000        0.0000000000000000     
  0.55555555999999995        0.0000000000000000        0.0000000000000000     
  0.66666667000000002        0.0000000000000000        0.0000000000000000     
  0.77777777999999997        0.0000000000000000        0.0000000000000000     
  0.88888889000000004        0.0000000000000000        0.0000000000000000     
   1.0000000000000000       0.11111111000000000        0.0000000000000000     
   1.0000000000000000       0.22222222000000000        0.0000000000000000     
   1.0000000000000000       0.33333332999999998        0.0000000000000000     
   1.0000000000000000       0.44444444000000000        0.0000000000000000     
   1.0000000000000000       0.55555555999999995        0.0000000000000000     
   1.0000000000000000       0.66666667000000002        0.0000000000000000     
   1.0000000000000000       0.77777777999999997        0.0000000000000000     
   1.0000000000000000       0.88888889000000004        0.0000000000000000     
  0.88888889000000004        1.0000000000000000        0.0000000000000000     
  0.77777777999999997        1.0000000000000000        0.0000000000000000     
  0.66666667000000002        1.0000000000000000        0.0000000000000000     
  0.55555555999999995        1.0000000000000000        0.0000000000000000     
  0.44444444000000000        1.0000000000000000        0.0000000000000000     
  0.33333332999999998        1.0000000000000000        0.0000000000000000     
  0.22222222000000000        1.0000000000000000        0.0000000000000000     
  0.11111111000000000        1.0000000000000000        0.0000000000000000     
   0.0000000000000000       0.11111111000000000        0.0000000000000000     
   0.0000000000000000       0.22222222000000000        0.0000000000000000     
[...]
 CELL_DATA         354
 SCALARS U float
 LOOKUP_TABLE default
    0.18091009001075694677E-07
    0.49640017548541977884E-04
    0.27674500304476803897E-06
    0.17700465536159814050E-05
    0.59946610136174807667E-06
    0.21242141775411943362E-05
    0.59421624445067444198E-04
    0.46618820740758833311E-05
    0.72537963397862299862E-04
    0.30423752581411583461E-03
    0.46078304465450766738E-03
    0.53267377387410878419E-03
    0.62020845655883167016E-03
    0.58714980167810261729E-03
    0.67495910410177249045E-03
    0.55801729126889318064E-03
    0.33821382577131810102E-03
    0.13990190661756151617E-03
    0.77233383608478259059E-04
    0.12927602325092532815E-03
    0.57058285761728992148E-04
    0.86148541107181186697E-04
    0.21965921796707977491E-03
    0.55458834322719781276E-04
    0.20690333914236532170E-03
    0.73473179530142494580E-04
    0.60514485852914666486E-04
    0.94015828065773855184E-04
    0.28084693389386507342E-04
    0.12285104608185461786E-06
    0.40171921477635329630E-07
    0.66243394364169103077E-07
    0.40178641433480148690E-07
    0.36156173218834292341E-07
    0.65526920593601790611E-07
    0.49908247820319376297E-07
    0.78587134328412524776E-07
    0.46068534997777836652E-07
    0.18172720474539455437E-07
    0.23323681955775631100E-07
    0.18145626285460921810E-07
    0.14372868338615026134E-07
    0.15726283007264944231E-07
    0.14376676125486838840E-07
    0.15741626264409801012E-07
    0.11432014698385564252E-07
    0.29075215837636790587E-07
    0.11427697056858262028E-07
    0.11823078133339581562E-06
    0.42286841323729012703E-06
    0.12313072316160538850E-05
    0.65629606965422601529E-06
    0.18577199664086352930E-07
    0.10438083048099505955E-07
    0.24036312518337571442E-07
    0.12938093383887758907E-07
    0.21039599709862413150E-07
    0.16798513948418999922E-07
    0.22871116618297500740E-07
    0.16802919202133317692E-07
    0.22859372132867264846E-07
    0.18997906036871723633E-07
    0.24913016602846551634E-07
    0.19004321360960995115E-07
    0.42904550387314770059E-07
    0.46112433932959376053E-07
    0.26238540043994753484E-06
    0.25273127608763591834E-06
    0.25665091865566930750E-03
    0.61731319255818768721E-03
    0.52205160113973753631E-03
    0.36911009349839828163E-03
    0.66587954018016456796E-03
    0.61359902323911759848E-03
    0.50847690821620526030E-03
    0.37838998961180073458E-03
    0.45953097395935938374E-03
    0.78063178911396281356E-03
    0.52901017376002804570E-04
    0.11850228805541204084E-03
    0.13633176016933528144E-04
    0.12914902472651058614E-04
    0.15223849175667063705E-03
    0.13779757311126603073E-04
    0.28688626732929604652E-03
    0.43878790741854247230E-04
    0.10965261130209187964E-06
    0.22175194926081205713E-03
    0.22367247768500850128E-03
    0.70068998192930175700E-04
    0.56168538849363168724E-04
    0.34131544901047781353E-04
    0.47427458510180074099E-06
    0.12370437450669803454E-06
    0.10730502822727287873E-06
    0.11533592034781518920E-06
    0.34643075936867796620E-04
    0.39215404191670418400E-03
    0.54202476132788441569E-03
    0.46994452517862809636E-03
    0.67564044954563956709E-03
    0.39788760348182796670E-03
    0.65410852753320562845E-03
    0.27334485230614294317E-03
    0.27916539516945201253E-03
    0.40279842051101811152E-04
    0.60972753067562185261E-04
    0.20207622561055341355E-03
    0.11730772851518464072E-03
    0.28838592791746734198E-04
    0.11505882131244983164E-06
    0.11198226905196658468E-04
    0.13597160697074676294E-06
    0.14050737726869387895E-06
    0.31636426822789494133E-03
    0.35478041440835356808E-04
    0.38598045340798158454E-04
    0.92391260070171294023E-04
    0.12119765366574586504E-03
    0.41157662152188231227E-06
    0.38575475779336829141E-04
    0.47142066642438240858E-07
    0.70798716218373259410E-07
    0.80877566485206894286E-07
    0.10055815062246399328E-06
    0.13928560923987473291E-06
    0.51836260852884825162E-07
    0.65076474239253011061E-07
    0.52990133848607733644E-04
    0.68653593596366675831E-04
    0.23453991061745971653E-05
    0.17007653530554320818E-03
    0.77094593900435087709E-04
    0.13504822025985897670E-05
    0.16431614458551570994E-04
    0.52070661214801772579E-03
    0.62901453923136778790E-03
    0.32914836984467796830E-03
    0.55086984636301293203E-03
    0.34349744995762883587E-03
    0.42967392711771836217E-03
    0.35820393981905328164E-03
    0.36912886889248233349E-07
    0.41058778920765225709E-07
    0.41516566103292002931E-07
    0.58450323875001297888E-07
    0.41956193342321437766E-07
    0.33295224302670210210E-07
    0.34441385149201985792E-07
    0.32882800409369248359E-03
    0.25560315988001582792E-03
    0.56677781648766403062E-04
    0.37271380602413474578E-03
    0.56581125238143822496E-04
    0.42289479944609303149E-03
    0.46753189254202746211E-03
    0.67353143299808823034E-03
    0.47515219451966817519E-03
    0.46130476372443173210E-03
    0.77091374674841421297E-03
    0.11804897070293653453E-03
    0.44495982712577269221E-03
    0.34991519765121067856E-03
    0.16691927158267382231E-03
    0.11861691501382594296E-03
    0.43923623770750250948E-07
    0.95836049825434339399E-07
    0.40596960711230527158E-07
    0.71552159399014628308E-07
    0.10946903435878478972E-06
    0.38678998145285644434E-03
    0.59189174760921887779E-03
    0.48732416457551334466E-03
    0.63811630798936772035E-03
    0.54918752567329788550E-03
    0.11952734205624731924E-04
    0.24832324047641661253E-04
    0.93352395252394978413E-04
    0.18192370872359391726E-04
    0.18186014413022379149E-04
    0.46335497530191883898E-03
    0.48181160398737341976E-03
    0.51086453143259495831E-03
    0.34924498133574602768E-03
    0.57672384117811003722E-03
    0.80015227476395225779E-05
    0.11705075256663571696E-03
    0.11213693442581743102E-05
    0.12569840778655215377E-04
    0.49372533728838192350E-04
    0.23025107132056783429E-03
    0.31439854209743456261E-03
    0.24106255112146643985E-04
    0.20178453548143037420E-03
    0.73018689507348075862E-05
    0.61741692634057542956E-07
    0.34791012005064511410E-06
    0.84222530140644965254E-07
    0.57232220826695848198E-07
    0.88319378984648265655E-07
    0.22210777308410090523E-07
    0.35890117701870320115E-07
    0.36446563395749706309E-07
    0.18221469736942535341E-07
    0.36025031125492682401E-07
    0.12685311465545785885E-06
    0.22177124948247924617E-03
    0.47148759156817395704E-04
    0.31199101451070515275E-03
    0.16034144389978754867E-03
    0.10725718669674377825E-03
    0.89655519285724929210E-04
    0.34437854927559137519E-03
    0.17828971082049525150E-03
    0.48783040920484510832E-03
    0.67678843040839306144E-03
    0.40564348263171775893E-03
    0.39882347009821694523E-03
    0.72703433295411403273E-03
    0.16929588177639347109E-06
    0.13986753436346000712E-07
    0.52087224610273990786E-07
    0.26782285881817485861E-03
    0.36745501391004970840E-06
    0.36328250957759559677E-04
    0.17214171499360415247E-07
    0.20435406890787530387E-07
    0.41010704861952778193E-07
    0.53575446755741990962E-07
    0.35919599999063510692E-07
    0.29771948815442535991E-07
    0.68508021035388510939E-07
    0.35187220991132505180E-04
    0.97910025293861287221E-04
    0.12229025210653892905E-03
    0.13156135064285452404E-03
    0.31826950558096905614E-03
    0.41087374835474939306E-03
    0.50540048627089966503E-03
    0.27146267711300648990E-03
    0.41778965526085475252E-03
    0.15182308131303151664E-03
    0.87105699614604096973E-05
    0.96411190411324486805E-05
    0.48932425730431150339E-03
    0.46831311370331774394E-03
    0.77768923135988133739E-07
    0.24130317358286774217E-07
    0.31519931148062485653E-07
    0.73093629610887365022E-04
    0.14026240592169916855E-06
    0.24028760079203740642E-07
    0.19274601947200434553E-03
    0.33682213019824494820E-03
    0.55623967969856185018E-04
    0.41906075229279637906E-03
    0.26785412313510306671E-03
    0.24924541977750376250E-03
    0.28633680154415286252E-06
    0.76059078663498219002E-05
    0.66364361697140948514E-07
    0.31894835467966166755E-03
    0.48829377858137959327E-03
    0.40349329693370559070E-03
    0.61433758915562771564E-07
    0.35527525404839373673E-07
    0.40276550132062441486E-07
    0.49090229244902922297E-07
    0.30867618049517234600E-07
    0.42026775074072026185E-07
    0.38300664224219152900E-03
    0.27805889856216616136E-03
    0.44406007850063700798E-03
    0.65401563237590888602E-03
    0.11789861534711660641E-03
    0.41729735382504604384E-03
    0.20636295037264009615E-03
    0.15000447446874505043E-03
    0.34912051249172882752E-06
    0.12088843679033259358E-03
    0.35008651147521855143E-04
    0.35245174735075723732E-06
    0.36159760232362556055E-03
    0.16018361187765823564E-03
    0.44843420013924049027E-04
    0.62697743731455677068E-03
    0.44380708334037681029E-03
    0.12392334013523761504E-05
    0.16292628260318546326E-05
    0.67008250647134330255E-07
    0.78536249085390370044E-07
    0.13187025049300724641E-03
    0.89077150788165307448E-04
    0.40872779390116393350E-07
    0.42024748423746204695E-07
    0.16293357771724427592E-03
    0.92954452545918609044E-06
    0.12615589903569197962E-04
    0.23790247699967206093E-03
    0.67258438513490146118E-07
    0.10221201475032478485E-03
    0.69896944726586981685E-04
    0.49628523350436771217E-07
    0.42513331841657030219E-03
    0.26794531657924302833E-03
    0.67578041162455080790E-03
    0.91863751973004140043E-04
    0.50073455105601014266E-03
    0.52033208915977895701E-07
    0.66083479017571897709E-07
    0.10825388087977775263E-03
    0.35315518759402388148E-03
    0.48988419519723966616E-03
    0.17989830277177502253E-04
    0.52320146853237776540E-03
    0.50921361020251916085E-03
    0.52159368681985434835E-05
    0.84342542098747157750E-05
    0.10551137612041500288E-07
    0.99284897070908769840E-08
    0.47981048600294531469E-04
    0.99410129963024831272E-08
    0.36195805196711063149E-06
    0.37696149959019455156E-06
    0.26526485587616121991E-05
    0.16347259008143988103E-05
    0.15056727290044015093E-05
    0.27429391207473450220E-04
    0.37438535085463318930E-03
    0.96455305153650059118E-03
    0.11592745822762327238E-02
    0.61756274493591969271E-03
    0.56905950568749783121E-04
    0.99857742543547147215E-08
    0.22271619491805238657E-05
    0.24279321949931364968E-07
    0.30172691003195053633E-07
    0.99454931648377903856E-08
    0.99482703654652203234E-08
    0.30603371301018001630E-07
    0.41534080013254185184E-07
    0.99560184808061780487E-08
    0.99414430198836766520E-08
    0.99441129711132441712E-08
    0.99667822141067771117E-08
    0.14130215625886969357E-06
    0.93758235580559628236E-06
    0.99215628053853766201E-08
    0.99141086360380293864E-08
    0.99160509532695734297E-08
    0.99196946985160189007E-08
    0.99414188807654375342E-08
    0.32648143906407473505E-07
    0.37523083276472580898E-06
