# vtk DataFile Version 3.0
LAPLACIEN  2D
ASCII
DATASET UNSTRUCTURED_GRID
 POINTS         131  float
  0.50371505999999999       0.50367786999999997        0.0000000000000000     
  0.29013556000000001       0.29014535000000002        0.0000000000000000     
  0.70165584999999997       0.71206597999999999        0.0000000000000000     
  0.70304188999999995       0.30176619999999998        0.0000000000000000     
  0.30920671999999999       0.71149227999999998        0.0000000000000000     
  0.79044983999999996       0.49884783999999999        0.0000000000000000     
  0.49102621000000002       0.20968644000000000        0.0000000000000000     
  0.49912957000000002       0.77208717000000004        0.0000000000000000     
  0.21724072999999999       0.48989389000000000        0.0000000000000000     
  0.83255933999999998       0.83046598000000005        0.0000000000000000     
  0.16646774000000000       0.17015694000000001        0.0000000000000000     
  0.83054514999999995       0.16736480000000001        0.0000000000000000     
  0.16953130999999999       0.83265739000000005        0.0000000000000000     
  0.42166445000000002       0.36345201999999999        0.0000000000000000     
  0.64462200999999997       0.56347807999999999        0.0000000000000000     
  0.35324633999999999       0.56311191000000005        0.0000000000000000     
  0.65456411000000003       0.84856860999999995        0.0000000000000000     
  0.35141477999999998       0.15563974000000000        0.0000000000000000     
  0.15290967000000000       0.35206625000000003        0.0000000000000000     
  0.82942241000000005       0.34936866000000000        0.0000000000000000     
  0.84390527000000004       0.64441694999999999        0.0000000000000000     
  0.63699174999999997       0.14284276000000001        0.0000000000000000     
  0.15620682999999999       0.64648446999999998        0.0000000000000000     
  0.36426062999999997       0.85756310999999996        0.0000000000000000     
  0.63489340999999999       0.40519052000000000        0.0000000000000000     
  0.52518872999999999       0.65957078000000002        0.0000000000000000     
  0.32158959999999998       0.42298103999999997        0.0000000000000000     
  0.58861710000000000       0.31711036999999997        0.0000000000000000     
  0.42078418000000001       0.69497151999999995        0.0000000000000000     
  0.48608786999999998       0.89334152000000000        0.0000000000000000     
   9.7084320000000002E-002  0.50000000000000000        0.0000000000000000     
  0.90291568000000000       0.50000000000000000        0.0000000000000000     
  0.51392453000000005       0.10668648999999999        0.0000000000000000     
  0.59792566999999996       0.73122754000000001        0.0000000000000000     
  0.74510058999999995       0.41124730999999998        0.0000000000000000     
  0.73212551999999997       0.90191560000000004        0.0000000000000000     
   9.7784830000000003E-002  0.26957329000000002        0.0000000000000000     
  0.26711221000000002        9.8671499999999995E-002   0.0000000000000000     
  0.90191560000000004       0.26787448000000003        0.0000000000000000     
  0.90118569000000004       0.73039821000000005        0.0000000000000000     
  0.73122947000000005        9.8017859999999998E-002   0.0000000000000000     
   9.8084400000000002E-002  0.73212551999999997        0.0000000000000000     
  0.26957329000000002       0.90221516999999996        0.0000000000000000     
  0.39283522999999998       0.25360379000000000        0.0000000000000000     
  0.74480864000000002       0.60495284999999999        0.0000000000000000     
  0.25505132000000003       0.60593640999999998        0.0000000000000000     
  0.52159297999999998       0.40671636000000000        0.0000000000000000     
  0.40768852000000000       0.47699891000000000        0.0000000000000000     
   9.1467049999999994E-002   9.1876959999999994E-002   0.0000000000000000     
  0.90842484999999995       0.90819225000000003        0.0000000000000000     
  0.90820104999999995        9.1566729999999999E-002   0.0000000000000000     
   9.1807449999999999E-002  0.90843574000000005        0.0000000000000000     
  0.27098960000000000       0.20527094000000001        0.0000000000000000     
  0.73457293999999995       0.79835387000000002        0.0000000000000000     
  0.79817773000000003       0.25713470999999999        0.0000000000000000     
  0.20747797000000001       0.72863946000000002        0.0000000000000000     
  0.20175195000000001       0.27583914999999998        0.0000000000000000     
  0.79603889000000005       0.72159035000000005        0.0000000000000000     
  0.71761666000000002       0.19748431999999999        0.0000000000000000     
  0.28462607000000001       0.80251899999999998        0.0000000000000000     
  0.69134598999999997       0.49261972999999998        0.0000000000000000     
  0.44720578999999999       0.58582935999999997        0.0000000000000000     
  0.24242269999999999       0.37228174000000003        0.0000000000000000     
  0.38265623999999998       0.93072131999999996        0.0000000000000000     
  0.60971754000000000       0.91988369000000003        0.0000000000000000     
   7.9163609999999995E-002  0.60979116000000000        0.0000000000000000     
  0.92010649000000000       0.61081183999999999        0.0000000000000000     
  0.61954008999999999        7.1530830000000004E-002   0.0000000000000000     
  0.91882012999999996       0.38917363999999999        0.0000000000000000     
  0.39086346000000000        8.0652249999999995E-002   0.0000000000000000     
   7.9183480000000001E-002  0.38966213000000000        0.0000000000000000     
  0.59114111999999996       0.49294315000000000        0.0000000000000000     
  0.63337980999999999       0.64485914000000000        0.0000000000000000     
  0.50012352000000004       0.29676539000000002        0.0000000000000000     
  0.82552601000000003       0.92753492000000004        0.0000000000000000     
  0.92774772999999999       0.82498556999999995        0.0000000000000000     
   7.1970870000000006E-002  0.17510291000000000        0.0000000000000000     
  0.17422821999999999        7.2635640000000001E-002   0.0000000000000000     
  0.82510813000000005        7.2134840000000006E-002   0.0000000000000000     
  0.92754665000000003       0.17446275999999999        0.0000000000000000     
  0.17501022999999999       0.92789951999999998        0.0000000000000000     
   7.2464680000000004E-002  0.82554053000000005        0.0000000000000000     
  0.30731587999999999       0.50885354999999999        0.0000000000000000     
  0.59033407999999998       0.22171178999999999        0.0000000000000000     
  0.40109191999999999       0.78725542000000004        0.0000000000000000     
  0.35420917000000002       0.63754104000000000        0.0000000000000000     
  0.15983976999999999       0.56665573000000002        0.0000000000000000     
  0.84108459999999996       0.56757886999999996        0.0000000000000000     
  0.83902096000000004       0.43344338999999998        0.0000000000000000     
  0.43230028999999998       0.16004268999999999        0.0000000000000000     
  0.57536027999999995       0.83041363999999995        0.0000000000000000     
  0.15771898000000001       0.42747892999999998        0.0000000000000000     
  0.34021692999999997       0.34221559000000001        0.0000000000000000     
  0.56002271999999997       0.57501117999999996        0.0000000000000000     
  0.65344329000000001       0.78147597999999996        0.0000000000000000     
   0.0000000000000000        0.0000000000000000        0.0000000000000000     
   1.0000000000000000        0.0000000000000000        0.0000000000000000     
   1.0000000000000000        1.0000000000000000        0.0000000000000000     
   0.0000000000000000        1.0000000000000000        0.0000000000000000     
  0.11111111000000000        0.0000000000000000        0.0000000000000000     
  0.22222222000000000        0.0000000000000000        0.0000000000000000     
  0.33333332999999998        0.0000000000000000        0.0000000000000000     
  0.44444444000000000        0.0000000000000000        0.0000000000000000     
  0.55555555999999995        0.0000000000000000        0.0000000000000000     
  0.66666667000000002        0.0000000000000000        0.0000000000000000     
  0.77777777999999997        0.0000000000000000        0.0000000000000000     
  0.88888889000000004        0.0000000000000000        0.0000000000000000     
   1.0000000000000000       0.11111111000000000        0.0000000000000000     
   1.0000000000000000       0.22222222000000000        0.0000000000000000     
   1.0000000000000000       0.33333332999999998        0.0000000000000000     
   1.0000000000000000       0.44444444000000000        0.0000000000000000     
   1.0000000000000000       0.55555555999999995        0.0000000000000000     
   1.0000000000000000       0.66666667000000002        0.0000000000000000     
   1.0000000000000000       0.77777777999999997        0.0000000000000000     
   1.0000000000000000       0.88888889000000004        0.0000000000000000     
  0.88888889000000004        1.0000000000000000        0.0000000000000000     
  0.77777777999999997        1.0000000000000000        0.0000000000000000     
  0.66666667000000002        1.0000000000000000        0.0000000000000000     
  0.55555555999999995        1.0000000000000000        0.0000000000000000     
  0.44444444000000000        1.0000000000000000        0.0000000000000000     
  0.33333332999999998        1.0000000000000000        0.0000000000000000     
  0.22222222000000000        1.0000000000000000        0.0000000000000000     
  0.11111111000000000        1.0000000000000000        0.0000000000000000     
   0.0000000000000000       0.11111111000000000        0.0000000000000000     
   0.0000000000000000       0.22222222000000000        0.0000000000000000     
[...]
 CELL_DATA         224
 SCALARS U float
 LOOKUP_TABLE default
    0.53906319489544796131E+00
    0.55839903458291810512E-01
    0.42238274595517204257E-01
   -0.38579534227482625841E+00
    0.37242552808596708636E-01
    0.55895785307867089375E-01
   -0.42111400666307929885E+00
    0.38272021788870118353E-01
    0.43978663157179805065E-01
    0.30804041233872613004E-01
    0.41919533402044170667E-01
    0.56575527598635197424E-01
    0.25991875415388100007E-01
    0.36367621242708192408E+00
    0.57972704499447975934E-01
    0.49794545298873858774E-01
    0.32965097521188931051E-01
    0.58080984568511496990E-01
    0.42187376797062393907E-01
    0.23800975746918029419E+00
    0.41880808353355974960E-01
    0.56245834456439325333E+00
    0.33376874891917818200E-01
    0.30174522875354829049E-01
   -0.36301397298295423610E+00
    0.48189665187478553099E-01
    0.56271435049346098245E-01
    0.99658697823562805707E-01
    0.42559979242036617697E-01
    0.30001161420312099509E-01
    0.35067641190327444867E-01
    0.46662074638979596231E-01
    0.14390005765177316110E+00
    0.42073848307438432848E-01
    0.51408184098080278446E+00
    0.28818398290203117024E-01
    0.37951164349815130761E-01
    0.47392725650262999826E-01
    0.52224140494728024664E-01
    0.34076440207197432330E-01
    0.60212817865733118949E-01
    0.27334234680468926654E-01
    0.25730638017065678852E-01
    0.16474669892287568951E+00
    0.49864451747250196356E-01
    0.40854686265393631850E-01
   -0.37640354143808896215E+00
    0.21564889166948147947E+00
    0.34488709164861269807E-01
    0.25035962742840249529E-01
    0.45833671490793329029E-01
    0.20959216014049257548E-01
    0.52256433705856093763E-01
    0.35132028143552228305E-01
    0.49334171573839957770E+00
    0.32036978887845277142E-01
    0.46738269713700576757E-01
    0.38675383176258744389E-01
    0.12034775688005680538E+00
    0.31090045259264686289E-01
    0.38014466452707779132E+00
    0.53102695433900726218E-01
    0.50005124828424896144E-01
    0.26601360917692731811E-01
    0.28832589414581961257E-01
    0.30718954549985136998E-01
    0.39692796110626718531E-01
    0.62727014364948957548E-01
    0.49494933702808482923E-01
    0.55884868913448716710E-01
    0.36056957640884540472E-01
    0.59452397853623084600E+00
    0.49632885833916146057E-01
    0.96473012472033103926E-02
    0.25919601589570493566E-01
    0.28311683911907976896E-01
    0.35035116311228985120E-01
    0.39345527421708832716E-01
    0.51072599362499346287E-01
    0.47634032774224566165E-01
    0.22384682898966289794E-01
    0.23138930840999740596E-01
    0.50180634792162254199E-01
    0.28400670321004489738E-02
    0.35323113203044050057E-01
    0.44274935776962773271E-01
    0.36869539473958309883E-01
    0.47223849522891540864E-01
    0.55690403108146498135E-01
    0.75576213271120351589E+00
    0.34528981849039207253E-01
    0.41281889870665555708E-01
    0.61288011888145796369E-01
    0.57459287744568113276E-01
    0.37658535321831547449E-01
    0.27023886592371374610E-01
    0.35530180630634802807E-01
    0.19493505955810210006E-01
    0.16193902922841795639E-01
    0.32765652703935513324E-01
    0.39205685890889505063E-01
    0.45870947934623117204E-01
    0.51633331482256392131E-01
    0.54629339101356533259E-01
    0.53411707225342400229E-01
    0.48615220088541889754E-01
    0.42158449838806157095E-01
    0.39709811456004856511E-01
    0.42450658651819572764E-01
    0.42947580691832028255E-01
    0.41031632264055213632E-01
    0.37314220576281531550E-01
    0.32707626136547533757E-01
    0.27950253780790648706E-01
    0.23478586105595306011E-01
    0.21595646287914761069E-01
    0.23287581700338549212E-01
    0.24337844820946533814E-01
    0.24578381227532100639E-01
    0.23967890258447557134E-01
    0.22609118443329294379E-01
    0.20707078963126145099E-01
    0.18498567917723664905E-01
    0.29451026002914146296E-01
    0.30947827509668190266E-01
    0.31211005683077643058E-01
    0.30182394995417662770E-01
    0.28080965207686926083E-01
    0.25288624276251142620E-01
    0.22194415949537932981E-01
    0.19099148371421584280E-01
    0.43500253477660644208E+00
    0.65458699655510751980E-01
    0.99635845921971041839E-01
    0.11541839899053347729E+01
    0.31913847777470402689E-01
    0.34627286548346618289E-01
   -0.63263807504620694910E+00
    0.29014353325352362778E-01
    0.68032900057053521947E-01
    0.43015813614818189381E-01
   -0.73344232475737725085E+00
    0.35314874495038617308E-01
    0.36687331757901758822E-01
    0.59336584769672608142E-01
    0.58494465730570883999E-01
    0.42821763269532082952E-01
    0.58729922261331868327E+00
    0.38451898494546089824E-01
    0.99629145414543318626E-01
    0.32239715271708387079E-01
   -0.73092060823081428378E+00
   -0.76204824049469810365E+00
    0.34502357655697250827E-01
    0.17242091364832325129E-01
    0.50087438318372541624E-01
    0.25013558678346602820E-01
    0.27808823602401711722E-01
    0.35537954929953465000E-01
    0.59241625576601848746E-01
    0.27359432459206866478E-01
    0.48404205658777288424E-01
    0.49888572891983506974E-01
    0.35121621058128847659E-01
    0.31336032051427514800E-01
    0.30249242771448282829E-01
    0.21970867203011827662E-01
    0.40271268010398229842E-01
    0.41076574494251186231E-01
    0.22587023428343934450E-01
    0.18676359135789799559E-01
    0.18479747509148033990E-01
    0.62873632217737812633E-01
    0.62742818031285965685E-01
    0.25450593579577816816E-01
    0.22992676865740673681E-01
    0.24933033445401080880E-01
    0.31597529474452254461E-01
    0.45893131156662013426E-01
    0.54277335032465331977E-01
    0.44282380882379270004E-01
    0.33338945723421969936E-01
    0.27529786025228552421E-01
    0.30478944200324115804E-01
    0.38540945117925010099E-01
    0.65446854713892513300E-01
    0.30269174937861079849E-01
    0.54144492968673962885E-01
    0.53883366985850479625E-01
    0.38847288188641547479E-01
    0.56608595794986650562E-01
    0.45168396349129572021E-01
    0.43506443490693380571E-01
    0.43347237840866678638E-01
    0.57204696913469924024E-01
    0.48013828547203957209E-01
    0.50028830519341274674E-01
    0.99639436330655375973E-01
    0.46571306938315105983E-01
    0.26129901678748828492E-01
    0.31082754946389037215E-01
    0.41689286489701958549E-01
    0.57547552557589622124E-01
    0.38047442579236978588E-01
    0.46778151159526791536E-01
    0.35092136865585543681E-01
    0.38312123620723934070E-01
    0.51907146278062303579E-01
    0.61105429483107279176E-01
    0.27822680610205534346E-01
    0.26811189773146344717E-01
    0.33810031633324272304E-01
    0.58014758430615008533E-01
    0.45863374754652949661E-01
    0.41187446751210270157E-01
    0.61567523452713553145E-01
    0.31249986482207357807E-01
    0.32280059882698206031E-01
    0.52671129031055571867E-01
    0.58904159367270288172E-01
    0.30893387441615936112E-01
    0.42285370816468673127E-01
    0.34509480560839474184E-01
    0.62784427326337710618E-01
