# vtk DataFile Version 3.0
LAPLACIEN  2D
ASCII
DATASET UNSTRUCTURED_GRID
 POINTS         391  float
  0.50371505999999999       0.50367786999999997        0.0000000000000000     
  0.29013556000000001       0.29014535000000002        0.0000000000000000     
  0.70165584999999997       0.71206597999999999        0.0000000000000000     
  0.70304188999999995       0.30176619999999998        0.0000000000000000     
  0.30920671999999999       0.71149227999999998        0.0000000000000000     
  0.79044983999999996       0.49884783999999999        0.0000000000000000     
  0.49102621000000002       0.20968644000000000        0.0000000000000000     
  0.49912957000000002       0.77208717000000004        0.0000000000000000     
  0.21724072999999999       0.48989389000000000        0.0000000000000000     
  0.83255933999999998       0.83046598000000005        0.0000000000000000     
  0.16646774000000000       0.17015694000000001        0.0000000000000000     
  0.83054514999999995       0.16736480000000001        0.0000000000000000     
  0.16953130999999999       0.83265739000000005        0.0000000000000000     
  0.42166445000000002       0.36345201999999999        0.0000000000000000     
  0.64462200999999997       0.56347807999999999        0.0000000000000000     
  0.35324633999999999       0.56311191000000005        0.0000000000000000     
  0.65456411000000003       0.84856860999999995        0.0000000000000000     
  0.35141477999999998       0.15563974000000000        0.0000000000000000     
  0.15290967000000000       0.35206625000000003        0.0000000000000000     
  0.82942241000000005       0.34936866000000000        0.0000000000000000     
  0.84390527000000004       0.64441694999999999        0.0000000000000000     
  0.63699174999999997       0.14284276000000001        0.0000000000000000     
  0.15620682999999999       0.64648446999999998        0.0000000000000000     
  0.36426062999999997       0.85756310999999996        0.0000000000000000     
  0.63489340999999999       0.40519052000000000        0.0000000000000000     
  0.52518872999999999       0.65957078000000002        0.0000000000000000     
  0.32158959999999998       0.42298103999999997        0.0000000000000000     
  0.58861710000000000       0.31711036999999997        0.0000000000000000     
  0.42078418000000001       0.69497151999999995        0.0000000000000000     
  0.48608786999999998       0.89334152000000000        0.0000000000000000     
   9.7084320000000002E-002  0.50000000000000000        0.0000000000000000     
  0.90291568000000000       0.50000000000000000        0.0000000000000000     
  0.51392453000000005       0.10668648999999999        0.0000000000000000     
  0.59792566999999996       0.73122754000000001        0.0000000000000000     
  0.74510058999999995       0.41124730999999998        0.0000000000000000     
  0.73212551999999997       0.90191560000000004        0.0000000000000000     
   9.7784830000000003E-002  0.26957329000000002        0.0000000000000000     
  0.26711221000000002        9.8671499999999995E-002   0.0000000000000000     
  0.90191560000000004       0.26787448000000003        0.0000000000000000     
  0.90118569000000004       0.73039821000000005        0.0000000000000000     
  0.73122947000000005        9.8017859999999998E-002   0.0000000000000000     
   9.8084400000000002E-002  0.73212551999999997        0.0000000000000000     
  0.26957329000000002       0.90221516999999996        0.0000000000000000     
  0.39283522999999998       0.25360379000000000        0.0000000000000000     
  0.74480864000000002       0.60495284999999999        0.0000000000000000     
  0.25505132000000003       0.60593640999999998        0.0000000000000000     
  0.52159297999999998       0.40671636000000000        0.0000000000000000     
  0.40768852000000000       0.47699891000000000        0.0000000000000000     
   9.1467049999999994E-002   9.1876959999999994E-002   0.0000000000000000     
  0.90842484999999995       0.90819225000000003        0.0000000000000000     
  0.90820104999999995        9.1566729999999999E-002   0.0000000000000000     
   9.1807449999999999E-002  0.90843574000000005        0.0000000000000000     
  0.27098960000000000       0.20527094000000001        0.0000000000000000     
  0.73457293999999995       0.79835387000000002        0.0000000000000000     
  0.79817773000000003       0.25713470999999999        0.0000000000000000     
  0.20747797000000001       0.72863946000000002        0.0000000000000000     
  0.20175195000000001       0.27583914999999998        0.0000000000000000     
  0.79603889000000005       0.72159035000000005        0.0000000000000000     
  0.71761666000000002       0.19748431999999999        0.0000000000000000     
  0.28462607000000001       0.80251899999999998        0.0000000000000000     
  0.69134598999999997       0.49261972999999998        0.0000000000000000     
  0.44720578999999999       0.58582935999999997        0.0000000000000000     
  0.24242269999999999       0.37228174000000003        0.0000000000000000     
  0.38265623999999998       0.93072131999999996        0.0000000000000000     
  0.60971754000000000       0.91988369000000003        0.0000000000000000     
   7.9163609999999995E-002  0.60979116000000000        0.0000000000000000     
  0.92010649000000000       0.61081183999999999        0.0000000000000000     
  0.61954008999999999        7.1530830000000004E-002   0.0000000000000000     
  0.91882012999999996       0.38917363999999999        0.0000000000000000     
  0.39086346000000000        8.0652249999999995E-002   0.0000000000000000     
   7.9183480000000001E-002  0.38966213000000000        0.0000000000000000     
  0.59114111999999996       0.49294315000000000        0.0000000000000000     
  0.63337980999999999       0.64485914000000000        0.0000000000000000     
  0.50012352000000004       0.29676539000000002        0.0000000000000000     
  0.82552601000000003       0.92753492000000004        0.0000000000000000     
  0.92774772999999999       0.82498556999999995        0.0000000000000000     
   7.1970870000000006E-002  0.17510291000000000        0.0000000000000000     
  0.17422821999999999        7.2635640000000001E-002   0.0000000000000000     
  0.82510813000000005        7.2134840000000006E-002   0.0000000000000000     
  0.92754665000000003       0.17446275999999999        0.0000000000000000     
  0.17501022999999999       0.92789951999999998        0.0000000000000000     
   7.2464680000000004E-002  0.82554053000000005        0.0000000000000000     
  0.30731587999999999       0.50885354999999999        0.0000000000000000     
  0.59033407999999998       0.22171178999999999        0.0000000000000000     
  0.40109191999999999       0.78725542000000004        0.0000000000000000     
  0.35420917000000002       0.63754104000000000        0.0000000000000000     
  0.15983976999999999       0.56665573000000002        0.0000000000000000     
  0.84108459999999996       0.56757886999999996        0.0000000000000000     
  0.83902096000000004       0.43344338999999998        0.0000000000000000     
  0.43230028999999998       0.16004268999999999        0.0000000000000000     
  0.57536027999999995       0.83041363999999995        0.0000000000000000     
  0.15771898000000001       0.42747892999999998        0.0000000000000000     
  0.34021692999999997       0.34221559000000001        0.0000000000000000     
  0.56002271999999997       0.57501117999999996        0.0000000000000000     
  0.65344329000000001       0.78147597999999996        0.0000000000000000     
   0.0000000000000000        0.0000000000000000        0.0000000000000000     
   1.0000000000000000        0.0000000000000000        0.0000000000000000     
   1.0000000000000000        1.0000000000000000        0.0000000000000000     
   0.0000000000000000        1.0000000000000000        0.0000000000000000     
  0.11111111000000000        0.0000000000000000        0.0000000000000000     
  0.22222222000000000        0.0000000000000000        0.0000000000000000     
  0.33333332999999998        0.0000000000000000        0.0000000000000000     
  0.44444444000000000        0.0000000000000000        0.0000000000000000     
  0.55555555999999995        0.0000000000000000        0.0000000000000000     
  0.66666667000000002        0.0000000000000000        0.0000000000000000     
  0.77777777999999997        0.0000000000000000        0.0000000000000000     
  0.88888889000000004        0.0000000000000000        0.0000000000000000     
   1.0000000000000000       0.11111111000000000        0.0000000000000000     
   1.0000000000000000       0.22222222000000000        0.0000000000000000     
   1.0000000000000000       0.33333332999999998        0.0000000000000000     
   1.0000000000000000       0.44444444000000000        0.0000000000000000     
   1.0000000000000000       0.55555555999999995        0.0000000000000000     
   1.0000000000000000       0.66666667000000002        0.0000000000000000     
   1.0000000000000000       0.77777777999999997        0.0000000000000000     
   1.0000000000000000       0.88888889000000004        0.0000000000000000     
  0.88888889000000004        1.0000000000000000        0.0000000000000000     
  0.77777777999999997        1.0000000000000000        0.0000000000000000     
  0.66666667000000002        1.0000000000000000        0.0000000000000000     
  0.55555555999999995        1.0000000000000000        0.0000000000000000     
  0.44444444000000000        1.0000000000000000        0.0000000000000000     
  0.33333332999999998        1.0000000000000000        0.0000000000000000     
  0.22222222000000000        1.0000000000000000        0.0000000000000000     
  0.11111111000000000        1.0000000000000000        0.0000000000000000     
   0.0000000000000000       0.11111111000000000        0.0000000000000000     
   0.0000000000000000       0.22222222000000000        0.0000000000000000     
[...]
 CELL_DATA         354
 SCALARS U float
 LOOKUP_TABLE default
    0.30774467645027107909E-01
    0.40677923656519385243E-01
    0.22271839832501555412E-01
    0.18577306395457220817E-01
    0.33527011942999916660E-01
    0.36176996607194214506E-01
    0.43203044875431625971E-01
    0.39390438210537559449E-01
    0.46858656839812225237E-01
    0.50722761724350667878E-01
    0.77773925030558549443E-01
    0.54194903995916865469E-01
    0.79411118190858220878E-01
    0.59024216902411760777E-01
    0.56785871425035674975E-01
    0.58138334464380304889E-01
    0.54091172484355160011E-01
    0.50068585833186879386E-01
    0.43858399853941812396E-01
    0.46730789931062013953E-01
    0.42553382052060766128E-01
    0.43768339843432937930E-01
    0.47002655971525107714E-01
    0.45214530725347659712E-01
    0.47367264500499842161E-01
    0.46351651710737865053E-01
    0.43811592036847431253E-01
    0.45237456877762580176E-01
    0.41713257114043340856E-01
    0.38695668916957276506E-01
    0.33479887687037669652E-01
    0.36131647351709574034E-01
    0.30917645448411624348E-01
    0.28212557309098072744E-01
    0.24170422349802676842E-01
    0.25978080088105502676E-01
    0.23188574066682350605E-01
    0.23815401808820316210E-01
    0.25879134458021674225E-01
    0.24690421719177423066E-01
    0.26491567287483582666E-01
    0.26610622084091258704E-01
    0.27133031234199644216E-01
    0.26786568223487315643E-01
    0.26727535782663708330E-01
    0.25446743103041055689E-01
    0.24086498001120563300E-01
    0.24657642375561557996E-01
    0.23078691533497022736E-01
    0.21621940312380204252E-01
    0.19630147793984715349E-01
    0.20494484412770165582E-01
    0.31789261213733793765E-01
    0.32321247216574290617E-01
    0.34213910112251021134E-01
    0.33107856580859629236E-01
    0.34405684203610897853E-01
    0.33722100962905093846E-01
    0.32535705691364602554E-01
    0.33137050934788955803E-01
    0.31370336956652693228E-01
    0.29518410890895872833E-01
    0.26341179001130716336E-01
    0.27960034938085513712E-01
    0.24655998207127365757E-01
    0.22736120278900696229E-01
    0.19942609758495107031E-01
    0.21180655074276178579E-01
    0.28805140335829854115E+00
    0.20793224869357218587E+00
    0.17763137930677413978E+00
    0.54235091756039599531E+00
    0.17965498022303480474E+00
    0.85230318976711585965E-01
    0.54573621098390832918E-01
    0.51318009864975006051E-01
    0.53136991822725666845E-01
    0.58670219339167106742E-01
    0.42448956274221356921E-01
    0.45760419865919887972E-01
    0.38597648375295556811E-01
    0.40780956134226976906E-01
    0.46002691645398538500E-01
    0.39747495769252683129E-01
    0.88168912406617810928E-01
    0.10000000000000000833E-29
    0.10000000000000000833E-29
    0.10000000000000000833E-29
    0.47966829355635348664E+00
    0.21189561016633842727E+00
    0.10000000000000000833E-29
    0.39916228299733132190E-01
    0.38922085967869377021E-01
    0.34858039595541998046E-01
    0.34106294886008060863E-01
    0.36411212763633370171E-01
    0.40957936069724497352E-01
    0.51325897183278471059E-01
    0.17301305648114573277E+00
    0.53394572777193068103E-01
    0.13879977540767871047E+00
    0.51072996523501619504E-01
    0.55973391958207753538E-01
    0.10000000000000000833E-29
    0.10000000000000000833E-29
    0.10000000000000000833E-29
    0.10000000000000000833E-29
    0.40248189366107550713E+00
    0.43074815965174734211E-01
    0.40653479357576544073E-01
    0.34242560524856885396E-01
    0.40369939246641145525E-01
    0.36715898858048170994E-01
    0.36326957123295325336E-01
    0.50091591761059928167E-01
    0.39407402460625594320E-01
    0.42651866601739960028E-01
    0.47309905663276696774E-01
    0.47317538594449704004E-01
    0.40022971322806286110E-01
    0.42615165821788481004E-01
    0.29946581679713930868E-01
    0.32621546315237073821E-01
    0.27758442062827997504E-01
    0.33091239921026582849E-01
    0.34702765445065397731E-01
    0.28116662189689077544E-01
    0.29554965110373636328E-01
    0.40135400713648725080E-01
    0.44896968593449257390E-01
    0.38019042796252781879E-01
    0.47116349881787915332E-01
    0.44486855021887192208E-01
    0.38106557054869504009E-01
    0.40709343569873664148E-01
    0.54765213047960892290E-01
    0.58973379717446920700E-01
    0.50883026975558812155E-01
    0.16798324155831498294E+00
    0.75972335902198179225E-01
    0.53784084746777247044E-01
    0.51648024061197950196E-01
    0.26824320927358296512E-01
    0.26015713967365992204E-01
    0.23328894911812583096E-01
    0.29040229599817037054E-01
    0.28592327930139663922E-01
    0.24041329789209923279E-01
    0.24491538217323683552E-01
    0.13639102443136294496E+00
    0.42424917773389037023E+00
    0.10000000000000000833E-29
    0.30737448973190495405E+00
    0.18643631963338747060E+00
    0.13883704683107450650E+00
    0.54442969185636694296E-01
    0.13972557185478398645E+00
    0.19430911933356526111E+00
    0.53871200175086807194E-01
    0.57935187962015632923E-01
    0.45621888999044894752E-01
    0.93423722337172762642E-01
    0.51691037803358028113E-01
    0.50084028524319999798E-01
    0.47045920699993276637E-01
    0.31083182657987831754E-01
    0.33919929884409186216E-01
    0.31036102817600240422E-01
    0.33665941408145667879E-01
    0.35254575924700846945E-01
    0.53007051558920138812E-01
    0.86733035509101372162E-01
    0.55586283018773940956E-01
    0.57012881027991166305E-01
    0.23470332367480367664E+00
    0.40315826227063804310E-01
    0.44405861524207876356E-01
    0.45758332432822582114E-01
    0.39232148686039414187E-01
    0.41931685719441946780E-01
    0.31204989067742416875E+00
    0.10082063757496313727E+00
    0.21392858305759024362E+00
    0.99189681271159901854E-01
    0.10247878275110272606E+00
    0.38173643933439617426E-01
    0.45377115252594232842E-01
    0.40524952856440359106E-01
    0.40758838768524180418E-01
    0.44610356609335148625E-01
    0.48214382304463865303E+00
    0.39392398040159415373E+00
    0.20986584941899841250E+00
    0.18966627842507208235E+00
    0.24714044831775355826E+00
    0.30520860303581698325E-01
    0.36640611663463197589E-01
    0.32905528929104407854E-01
    0.32050346894511867746E-01
    0.35222259825799809296E-01
    0.30275971349622423506E-01
    0.28103295446396180796E-01
    0.30620629568565892187E-01
    0.28330005785907119015E-01
    0.32412799781894416351E-01
    0.10000000000000000833E-29
    0.10000000000000000833E-29
    0.10000000000000000833E-29
    0.33748396921449763664E+00
    0.13551445940608872198E+00
    0.45444821647884325877E-01
    0.44965856980993965109E-01
    0.50619748425738395059E-01
    0.49126962114745952037E-01
    0.52682225936119826681E-01
    0.97676534617355981194E-01
    0.53062518373317373033E-01
    0.53098269973427023039E-01
    0.59047085066475962778E-01
    0.10000000000000000833E-29
    0.77151453866746863564E-01
    0.75447265421280315656E-01
    0.47561952540364098307E-01
    0.38775273431051998640E-01
    0.43704176152766900654E-01
    0.28107016359125883836E-01
    0.29455808854836923460E-01
    0.32935120014130944699E-01
    0.32472912119536866127E-01
    0.32816816304032769835E-01
    0.35614139047529663751E-01
    0.36179863810678253300E-01
    0.38475792674188602494E-01
    0.43028663005279070564E-01
    0.48195880804974944311E-01
    0.47105287921687583053E-01
    0.51474613413068130707E-01
    0.84056873881622307110E-01
    0.80254758902163797485E-01
    0.13471896852362758024E+00
    0.35116404491670105692E+00
    0.45797995455705849122E-01
    0.38240599089109636455E-01
    0.39639107970123682589E-01
    0.31031174916489251414E+00
    0.17260055430179657709E+00
    0.31959304953461067922E-01
    0.28819898775463256152E-01
    0.27313779459782524389E-01
    0.42313070113180126230E-01
    0.36994257809367520062E-01
    0.36497379453352463141E-01
    0.49901368662772671581E-01
    0.51762383610386424049E-01
    0.42915017301935108607E-01
    0.16557602667321502654E+00
    0.51066943206246939724E-01
    0.49931989964465385567E-01
    0.36364421499893925804E-01
    0.36962034091425656490E-01
    0.30882676427337586722E-01
    0.28273072663362142087E+00
    0.61907078130294113105E-01
    0.55216370064498601633E-01
    0.29678221485374536859E-01
    0.29085239258294971060E-01
    0.25039590739144586273E-01
    0.28350632506426283463E-01
    0.26218835909583394078E-01
    0.23934105939914660649E-01
    0.83708545782243820588E-01
    0.12992335886768111020E+00
    0.45469537882864841105E+00
    0.88879015895978435990E-01
    0.43848379063767248254E-01
    0.13595560224569613883E+00
    0.49914967698440955435E-01
    0.48678430649428533483E-01
    0.36223467851544823015E-01
    0.45741901093460504701E-01
    0.42755365526670814635E-01
    0.38858081954031398197E-01
    0.11094666605238587276E+00
    0.11315934690431558862E+00
    0.10000000000000000833E-29
    0.95816794932292892462E-01
    0.93813095648393851622E-01
    0.34894484152934911181E-01
    0.36983443709128309418E-01
    0.25573309150824313773E-01
    0.26733918953463657597E-01
    0.48609660098025517239E-01
    0.46955481095494605581E-01
    0.21744747233736917008E-01
    0.22111580074666882523E-01
    0.49425657768434147488E-01
    0.36833322850885079347E-01
    0.36602416235813839407E-01
    0.60588480138213740567E+00
    0.31569024559850243639E-01
    0.48538475836130232088E-01
    0.10000000000000000833E-29
    0.33320040070590938031E-01
    0.52164590367635244039E+00
    0.48268768212143410568E-01
    0.55579899441515014102E-01
    0.45218978785172669888E-01
    0.55722991557204885893E-01
    0.31651481158659566795E-01
    0.33861447738343743163E-01
    0.43602446411501738499E-01
    0.52764504469597649228E-01
    0.23376716397040614437E+00
    0.38674436338675413638E-01
    0.19416386682478578574E+00
    0.53537126660287752411E-01
    0.52945618536842847801E-01
    0.36331774153923315773E-01
    0.30255085248971962109E-01
    0.28740402916094136276E-01
    0.39402380049603155654E-01
    0.38282814035089429705E-01
    0.21761290380113054721E-01
    0.20901148892149820635E-01
    0.17629613442499057069E-01
    0.17903984019296218660E-01
    0.36259040085898669448E-01
    0.42974332905162046514E-01
    0.49375769070666646055E-01
    0.54235389608252249083E-01
    0.54808640045169110255E-01
    0.51829431500822947809E-01
    0.45871927955512016573E-01
    0.41642860763548082692E-01
    0.43497622543034852871E-01
    0.42632176555841130861E-01
    0.39802016437551768213E-01
    0.35405245574738550274E-01
    0.30646087337614882906E-01
    0.25921298260516610623E-01
    0.22729845326803346794E-01
    0.24222183340376360339E-01
    0.24821740178586907538E-01
    0.24737327226929579221E-01
    0.23568011128885717892E-01
    0.21991743243855960827E-01
    0.19830024355161877253E-01
    0.30607264976329019712E-01
    0.31644298878135176945E-01
    0.31147230121818074433E-01
    0.29619448812761482726E-01
    0.27019530387402793808E-01
    0.24039398446021171402E-01
    0.20847293013350715746E-01
