# vtk DataFile Version 3.0
LAPLACIEN  2D
ASCII
DATASET UNSTRUCTURED_GRID
 POINTS         131  float
  0.50371505999999999       0.50367786999999997        0.0000000000000000     
  0.29013556000000001       0.29014535000000002        0.0000000000000000     
  0.70165584999999997       0.71206597999999999        0.0000000000000000     
  0.70304188999999995       0.30176619999999998        0.0000000000000000     
  0.30920671999999999       0.71149227999999998        0.0000000000000000     
  0.79044983999999996       0.49884783999999999        0.0000000000000000     
  0.49102621000000002       0.20968644000000000        0.0000000000000000     
  0.49912957000000002       0.77208717000000004        0.0000000000000000     
  0.21724072999999999       0.48989389000000000        0.0000000000000000     
  0.83255933999999998       0.83046598000000005        0.0000000000000000     
  0.16646774000000000       0.17015694000000001        0.0000000000000000     
  0.83054514999999995       0.16736480000000001        0.0000000000000000     
  0.16953130999999999       0.83265739000000005        0.0000000000000000     
  0.42166445000000002       0.36345201999999999        0.0000000000000000     
  0.64462200999999997       0.56347807999999999        0.0000000000000000     
  0.35324633999999999       0.56311191000000005        0.0000000000000000     
  0.65456411000000003       0.84856860999999995        0.0000000000000000     
  0.35141477999999998       0.15563974000000000        0.0000000000000000     
  0.15290967000000000       0.35206625000000003        0.0000000000000000     
  0.82942241000000005       0.34936866000000000        0.0000000000000000     
  0.84390527000000004       0.64441694999999999        0.0000000000000000     
  0.63699174999999997       0.14284276000000001        0.0000000000000000     
  0.15620682999999999       0.64648446999999998        0.0000000000000000     
  0.36426062999999997       0.85756310999999996        0.0000000000000000     
  0.63489340999999999       0.40519052000000000        0.0000000000000000     
  0.52518872999999999       0.65957078000000002        0.0000000000000000     
  0.32158959999999998       0.42298103999999997        0.0000000000000000     
  0.58861710000000000       0.31711036999999997        0.0000000000000000     
  0.42078418000000001       0.69497151999999995        0.0000000000000000     
  0.48608786999999998       0.89334152000000000        0.0000000000000000     
   9.7084320000000002E-002  0.50000000000000000        0.0000000000000000     
  0.90291568000000000       0.50000000000000000        0.0000000000000000     
  0.51392453000000005       0.10668648999999999        0.0000000000000000     
  0.59792566999999996       0.73122754000000001        0.0000000000000000     
  0.74510058999999995       0.41124730999999998        0.0000000000000000     
  0.73212551999999997       0.90191560000000004        0.0000000000000000     
   9.7784830000000003E-002  0.26957329000000002        0.0000000000000000     
  0.26711221000000002        9.8671499999999995E-002   0.0000000000000000     
  0.90191560000000004       0.26787448000000003        0.0000000000000000     
  0.90118569000000004       0.73039821000000005        0.0000000000000000     
  0.73122947000000005        9.8017859999999998E-002   0.0000000000000000     
   9.8084400000000002E-002  0.73212551999999997        0.0000000000000000     
  0.26957329000000002       0.90221516999999996        0.0000000000000000     
  0.39283522999999998       0.25360379000000000        0.0000000000000000     
  0.74480864000000002       0.60495284999999999        0.0000000000000000     
  0.25505132000000003       0.60593640999999998        0.0000000000000000     
  0.52159297999999998       0.40671636000000000        0.0000000000000000     
  0.40768852000000000       0.47699891000000000        0.0000000000000000     
   9.1467049999999994E-002   9.1876959999999994E-002   0.0000000000000000     
  0.90842484999999995       0.90819225000000003        0.0000000000000000     
  0.90820104999999995        9.1566729999999999E-002   0.0000000000000000     
   9.1807449999999999E-002  0.90843574000000005        0.0000000000000000     
  0.27098960000000000       0.20527094000000001        0.0000000000000000     
  0.73457293999999995       0.79835387000000002        0.0000000000000000     
  0.79817773000000003       0.25713470999999999        0.0000000000000000     
  0.20747797000000001       0.72863946000000002        0.0000000000000000     
  0.20175195000000001       0.27583914999999998        0.0000000000000000     
  0.79603889000000005       0.72159035000000005        0.0000000000000000     
  0.71761666000000002       0.19748431999999999        0.0000000000000000     
  0.28462607000000001       0.80251899999999998        0.0000000000000000     
  0.69134598999999997       0.49261972999999998        0.0000000000000000     
  0.44720578999999999       0.58582935999999997        0.0000000000000000     
  0.24242269999999999       0.37228174000000003        0.0000000000000000     
  0.38265623999999998       0.93072131999999996        0.0000000000000000     
  0.60971754000000000       0.91988369000000003        0.0000000000000000     
   7.9163609999999995E-002  0.60979116000000000        0.0000000000000000     
  0.92010649000000000       0.61081183999999999        0.0000000000000000     
  0.61954008999999999        7.1530830000000004E-002   0.0000000000000000     
  0.91882012999999996       0.38917363999999999        0.0000000000000000     
  0.39086346000000000        8.0652249999999995E-002   0.0000000000000000     
   7.9183480000000001E-002  0.38966213000000000        0.0000000000000000     
  0.59114111999999996       0.49294315000000000        0.0000000000000000     
  0.63337980999999999       0.64485914000000000        0.0000000000000000     
  0.50012352000000004       0.29676539000000002        0.0000000000000000     
  0.82552601000000003       0.92753492000000004        0.0000000000000000     
  0.92774772999999999       0.82498556999999995        0.0000000000000000     
   7.1970870000000006E-002  0.17510291000000000        0.0000000000000000     
  0.17422821999999999        7.2635640000000001E-002   0.0000000000000000     
  0.82510813000000005        7.2134840000000006E-002   0.0000000000000000     
  0.92754665000000003       0.17446275999999999        0.0000000000000000     
  0.17501022999999999       0.92789951999999998        0.0000000000000000     
   7.2464680000000004E-002  0.82554053000000005        0.0000000000000000     
  0.30731587999999999       0.50885354999999999        0.0000000000000000     
  0.59033407999999998       0.22171178999999999        0.0000000000000000     
  0.40109191999999999       0.78725542000000004        0.0000000000000000     
  0.35420917000000002       0.63754104000000000        0.0000000000000000     
  0.15983976999999999       0.56665573000000002        0.0000000000000000     
  0.84108459999999996       0.56757886999999996        0.0000000000000000     
  0.83902096000000004       0.43344338999999998        0.0000000000000000     
  0.43230028999999998       0.16004268999999999        0.0000000000000000     
  0.57536027999999995       0.83041363999999995        0.0000000000000000     
  0.15771898000000001       0.42747892999999998        0.0000000000000000     
  0.34021692999999997       0.34221559000000001        0.0000000000000000     
  0.56002271999999997       0.57501117999999996        0.0000000000000000     
  0.65344329000000001       0.78147597999999996        0.0000000000000000     
   0.0000000000000000        0.0000000000000000        0.0000000000000000     
   1.0000000000000000        0.0000000000000000        0.0000000000000000     
   1.0000000000000000        1.0000000000000000        0.0000000000000000     
   0.0000000000000000        1.0000000000000000        0.0000000000000000     
  0.11111111000000000        0.0000000000000000        0.0000000000000000     
  0.22222222000000000        0.0000000000000000        0.0000000000000000     
  0.33333332999999998        0.0000000000000000        0.0000000000000000     
  0.44444444000000000        0.0000000000000000        0.0000000000000000     
  0.55555555999999995        0.0000000000000000        0.0000000000000000     
  0.66666667000000002        0.0000000000000000        0.0000000000000000     
  0.77777777999999997        0.0000000000000000        0.0000000000000000     
  0.88888889000000004        0.0000000000000000        0.0000000000000000     
   1.0000000000000000       0.11111111000000000        0.0000000000000000     
   1.0000000000000000       0.22222222000000000        0.0000000000000000     
   1.0000000000000000       0.33333332999999998        0.0000000000000000     
   1.0000000000000000       0.44444444000000000        0.0000000000000000     
   1.0000000000000000       0.55555555999999995        0.0000000000000000     
   1.0000000000000000       0.66666667000000002        0.0000000000000000     
   1.0000000000000000       0.77777777999999997        0.0000000000000000     
   1.0000000000000000       0.88888889000000004        0.0000000000000000     
  0.88888889000000004        1.0000000000000000        0.0000000000000000     
  0.77777777999999997        1.0000000000000000        0.0000000000000000     
  0.66666667000000002        1.0000000000000000        0.0000000000000000     
  0.55555555999999995        1.0000000000000000        0.0000000000000000     
  0.44444444000000000        1.0000000000000000        0.0000000000000000     
  0.33333332999999998        1.0000000000000000        0.0000000000000000     
  0.22222222000000000        1.0000000000000000        0.0000000000000000     
  0.11111111000000000        1.0000000000000000        0.0000000000000000     
   0.0000000000000000       0.11111111000000000        0.0000000000000000     
   0.0000000000000000       0.22222222000000000        0.0000000000000000     
[...]
 CELL_DATA         224
 SCALARS U float
 LOOKUP_TABLE default
    0.75604540353077231973E+00
    0.55857891169502398021E-01
    0.42238379224722434613E-01
   -0.79746444160440799198E+00
    0.37242651359493311736E-01
    0.56001403633741411725E-01
   -0.79816880394811151600E+00
    0.38272121582283623320E-01
    0.43978774341146185944E-01
    0.30804123761653062763E-01
    0.41919637842889830026E-01
    0.56622431322867129710E-01
    0.25991940290328578722E-01
    0.43623108136184685080E+00
    0.58147394059360639484E-01
    0.49822069174851379980E-01
    0.32965181255527678528E-01
    0.58205440564472285536E-01
    0.42187482812495180617E-01
    0.42891904101083905276E+00
    0.41880917730941477628E-01
    0.83275641658394072842E+00
    0.33376968704559160928E-01
    0.30174600876016914597E-01
   -0.79740811282660295500E+00
    0.48189773951600289870E-01
    0.56319051261494688931E-01
    0.98630711199163320635E-01
    0.42560095112898169156E-01
    0.30001241632683518096E-01
    0.35067736300732128829E-01
    0.46662187232552027050E-01
    0.22171410966235777229E+00
    0.42073951852913404892E-01
    0.73333440816768102888E+00
    0.28818473489167498874E-01
    0.37951266272651398848E-01
    0.47392835446586692449E-01
    0.52285408471057052970E-01
    0.34076532137388440558E-01
    0.60277978818202487821E-01
    0.27334304435049541770E-01
    0.25730702110762004864E-01
    0.25970055994584545500E+00
    0.49887292671953943624E-01
    0.40854790763144466226E-01
   -0.79767166553013091335E+00
    0.35074426385856205535E+00
    0.34488797648491484327E-01
    0.25036021125307231922E-01
    0.45833772459196397975E-01
    0.20959259879140355182E-01
    0.52266266756122364834E-01
    0.35132124397393250936E-01
    0.72813508857334552360E+00
    0.32037065409172282848E-01
    0.46738372260141339276E-01
    0.38675489879481848854E-01
   -0.45650375585985503157E-02
    0.31090126611808932555E-01
    0.61896421885043440003E+00
    0.53165723673810325045E-01
    0.50005229282689793446E-01
    0.26601424669738880924E-01
    0.28832665310853076296E-01
    0.30719037769657949605E-01
    0.39692903158567612032E-01
    0.62883683067578854953E-01
    0.49522347538664641953E-01
    0.55965801535817490120E-01
    0.36057054925340219220E-01
    0.89664090587383493691E+00
    0.49633005427288073852E-01
   -0.12395419763473913832E-01
    0.25919664555914864734E-01
    0.28311755109582469048E-01
    0.35035209523489277417E-01
    0.39345627805161521862E-01
    0.51072677853296034878E-01
    0.47634133890679733470E-01
    0.22384732731454592275E-01
    0.23138983200667619794E-01
    0.50203319446398393666E-01
   -0.12413470363444242817E-01
    0.35323209299503742498E-01
    0.44275054559027068879E-01
    0.36869636542262197720E-01
    0.47223960212501622791E-01
    0.55806975080786344612E-01
    0.89250446325923638025E+00
    0.34529075595510966279E-01
    0.41281994451874755303E-01
    0.61365396189243887060E-01
    0.57605481791196518071E-01
    0.37658632964525567965E-01
    0.27024792594823873054E-01
    0.35531778643139146079E-01
    0.19493996002723400912E-01
    0.16194254116871482918E-01
    0.32766296600467287314E-01
    0.39206663564135643685E-01
    0.45872430563271129889E-01
    0.51652744460441782359E-01
    0.54653272217536769118E-01
    0.53414202839635646636E-01
    0.48617074451007283309E-01
    0.42159731617194461106E-01
    0.39711269446155141039E-01
    0.42452359885216978119E-01
    0.42949254208156636969E-01
    0.41033098652377517079E-01
    0.37315358436659583352E-01
    0.32708409337067673173E-01
    0.27950795242183017197E-01
    0.23478954024771774706E-01
    0.21596105866362930170E-01
    0.23288117084934365636E-01
    0.24338419406578506998E-01
    0.24578948822130942953E-01
    0.23968444538834555307E-01
    0.22609622545128004595E-01
    0.20707479043751742670E-01
    0.18498882581839834471E-01
    0.29451891203001748232E-01
    0.30948780101363572437E-01
    0.31211941896358497833E-01
    0.30183251666823687764E-01
    0.28081678318290583668E-01
    0.25289161160981229320E-01
    0.22194816375994571439E-01
    0.19099437640155546986E-01
    0.37238263377975533430E-02
   -0.38116813411562255887E-02
    0.97870319160962740423E-01
    0.11267335917075922413E+01
    0.31913949070795727403E-01
    0.34627390273149864786E-01
   -0.79789954544453511875E+00
    0.29014466312376484963E-01
    0.68846953615385245162E-01
    0.43015905553833173880E-01
   -0.79907496378925613190E+00
    0.35314903101304716271E-01
    0.36687413099412709283E-01
    0.59333459905610667906E-01
    0.58485735270800233432E-01
    0.42821815675799582146E-01
    0.58928581940143021090E+00
    0.38452001183312455035E-01
    0.97756840775517661601E-01
    0.32239803865447072551E-01
   -0.79931362959895235765E+00
   -0.79937875379527134623E+00
    0.34502427740992644423E-01
   -0.51636549437228534964E-02
    0.50087518474888383102E-01
    0.25013629694301847683E-01
    0.27808901811217222322E-01
    0.35538061241665704071E-01
    0.59242356420645854442E-01
    0.27359502467350485522E-01
    0.48404346580365277541E-01
    0.49888678374533805548E-01
    0.35121712519393069596E-01
    0.31336477322284748970E-01
    0.30249932745338162926E-01
    0.21971228072932742076E-01
    0.40272372198944625388E-01
    0.41077465265823162599E-01
    0.22587282513386115063E-01
    0.18676568941299508120E-01
    0.18479985076099290919E-01
    0.63091227432293423005E-01
    0.62733755377369151973E-01
    0.25451084988348939703E-01
    0.22993065580864467667E-01
    0.24933455195684968431E-01
    0.31598128186652779670E-01
    0.45894601349924943334E-01
    0.54279206295645622549E-01
    0.44283505929535331436E-01
    0.33339771944748720911E-01
    0.27529864629875552134E-01
    0.30479033374256898903E-01
    0.38541043763151393298E-01
    0.66136999003678753617E-01
    0.30269303838076900420E-01
    0.54157350291147890453E-01
    0.53883409474014883067E-01
    0.38847472402988289519E-01
    0.56598338263430116035E-01
    0.45168596683442481521E-01
    0.43506467172701755730E-01
    0.43347235114235216358E-01
    0.57202111003718088267E-01
    0.48013934398138877202E-01
    0.50028801762148994436E-01
    0.97828066229192545133E-01
    0.46571275903932861373E-01
    0.26130374298951208889E-01
    0.31083461098098449232E-01
    0.41690469235245303237E-01
    0.57552620532378181983E-01
    0.38047466482165025192E-01
    0.46778317588037486574E-01
    0.35092289969249956805E-01
    0.38312267413961445528E-01
    0.51907205739600011107E-01
    0.61044390791827822518E-01
    0.27822757778358138403E-01
    0.26811226030256894715E-01
    0.33810135048653905399E-01
    0.58006544828745329467E-01
    0.45863512553643299985E-01
    0.41187498624771008704E-01
    0.61576468276587283113E-01
    0.31250047533669889077E-01
    0.32280101764226770689E-01
    0.52671265830997765489E-01
    0.58838625786895859537E-01
    0.30893482712501595805E-01
    0.42285496205127531821E-01
    0.34509566434648662747E-01
    0.63088041798250824033E-01
