# vtk DataFile Version 3.0
LAPLACIEN  2D
ASCII
DATASET UNSTRUCTURED_GRID
 POINTS         391  float
  0.50371505999999999       0.50367786999999997        0.0000000000000000     
  0.29013556000000001       0.29014535000000002        0.0000000000000000     
  0.70165584999999997       0.71206597999999999        0.0000000000000000     
  0.70304188999999995       0.30176619999999998        0.0000000000000000     
  0.30920671999999999       0.71149227999999998        0.0000000000000000     
  0.79044983999999996       0.49884783999999999        0.0000000000000000     
  0.49102621000000002       0.20968644000000000        0.0000000000000000     
  0.49912957000000002       0.77208717000000004        0.0000000000000000     
  0.21724072999999999       0.48989389000000000        0.0000000000000000     
  0.83255933999999998       0.83046598000000005        0.0000000000000000     
  0.16646774000000000       0.17015694000000001        0.0000000000000000     
  0.83054514999999995       0.16736480000000001        0.0000000000000000     
  0.16953130999999999       0.83265739000000005        0.0000000000000000     
  0.42166445000000002       0.36345201999999999        0.0000000000000000     
  0.64462200999999997       0.56347807999999999        0.0000000000000000     
  0.35324633999999999       0.56311191000000005        0.0000000000000000     
  0.65456411000000003       0.84856860999999995        0.0000000000000000     
  0.35141477999999998       0.15563974000000000        0.0000000000000000     
  0.15290967000000000       0.35206625000000003        0.0000000000000000     
  0.82942241000000005       0.34936866000000000        0.0000000000000000     
  0.84390527000000004       0.64441694999999999        0.0000000000000000     
  0.63699174999999997       0.14284276000000001        0.0000000000000000     
  0.15620682999999999       0.64648446999999998        0.0000000000000000     
  0.36426062999999997       0.85756310999999996        0.0000000000000000     
  0.63489340999999999       0.40519052000000000        0.0000000000000000     
  0.52518872999999999       0.65957078000000002        0.0000000000000000     
  0.32158959999999998       0.42298103999999997        0.0000000000000000     
  0.58861710000000000       0.31711036999999997        0.0000000000000000     
  0.42078418000000001       0.69497151999999995        0.0000000000000000     
  0.48608786999999998       0.89334152000000000        0.0000000000000000     
   9.7084320000000002E-002  0.50000000000000000        0.0000000000000000     
  0.90291568000000000       0.50000000000000000        0.0000000000000000     
  0.51392453000000005       0.10668648999999999        0.0000000000000000     
  0.59792566999999996       0.73122754000000001        0.0000000000000000     
  0.74510058999999995       0.41124730999999998        0.0000000000000000     
  0.73212551999999997       0.90191560000000004        0.0000000000000000     
   9.7784830000000003E-002  0.26957329000000002        0.0000000000000000     
  0.26711221000000002        9.8671499999999995E-002   0.0000000000000000     
  0.90191560000000004       0.26787448000000003        0.0000000000000000     
  0.90118569000000004       0.73039821000000005        0.0000000000000000     
  0.73122947000000005        9.8017859999999998E-002   0.0000000000000000     
   9.8084400000000002E-002  0.73212551999999997        0.0000000000000000     
  0.26957329000000002       0.90221516999999996        0.0000000000000000     
  0.39283522999999998       0.25360379000000000        0.0000000000000000     
  0.74480864000000002       0.60495284999999999        0.0000000000000000     
  0.25505132000000003       0.60593640999999998        0.0000000000000000     
  0.52159297999999998       0.40671636000000000        0.0000000000000000     
  0.40768852000000000       0.47699891000000000        0.0000000000000000     
   9.1467049999999994E-002   9.1876959999999994E-002   0.0000000000000000     
  0.90842484999999995       0.90819225000000003        0.0000000000000000     
  0.90820104999999995        9.1566729999999999E-002   0.0000000000000000     
   9.1807449999999999E-002  0.90843574000000005        0.0000000000000000     
  0.27098960000000000       0.20527094000000001        0.0000000000000000     
  0.73457293999999995       0.79835387000000002        0.0000000000000000     
  0.79817773000000003       0.25713470999999999        0.0000000000000000     
  0.20747797000000001       0.72863946000000002        0.0000000000000000     
  0.20175195000000001       0.27583914999999998        0.0000000000000000     
  0.79603889000000005       0.72159035000000005        0.0000000000000000     
  0.71761666000000002       0.19748431999999999        0.0000000000000000     
  0.28462607000000001       0.80251899999999998        0.0000000000000000     
  0.69134598999999997       0.49261972999999998        0.0000000000000000     
  0.44720578999999999       0.58582935999999997        0.0000000000000000     
  0.24242269999999999       0.37228174000000003        0.0000000000000000     
  0.38265623999999998       0.93072131999999996        0.0000000000000000     
  0.60971754000000000       0.91988369000000003        0.0000000000000000     
   7.9163609999999995E-002  0.60979116000000000        0.0000000000000000     
  0.92010649000000000       0.61081183999999999        0.0000000000000000     
  0.61954008999999999        7.1530830000000004E-002   0.0000000000000000     
  0.91882012999999996       0.38917363999999999        0.0000000000000000     
  0.39086346000000000        8.0652249999999995E-002   0.0000000000000000     
   7.9183480000000001E-002  0.38966213000000000        0.0000000000000000     
  0.59114111999999996       0.49294315000000000        0.0000000000000000     
  0.63337980999999999       0.64485914000000000        0.0000000000000000     
  0.50012352000000004       0.29676539000000002        0.0000000000000000     
  0.82552601000000003       0.92753492000000004        0.0000000000000000     
  0.92774772999999999       0.82498556999999995        0.0000000000000000     
   7.1970870000000006E-002  0.17510291000000000        0.0000000000000000     
  0.17422821999999999        7.2635640000000001E-002   0.0000000000000000     
  0.82510813000000005        7.2134840000000006E-002   0.0000000000000000     
  0.92754665000000003       0.17446275999999999        0.0000000000000000     
  0.17501022999999999       0.92789951999999998        0.0000000000000000     
   7.2464680000000004E-002  0.82554053000000005        0.0000000000000000     
  0.30731587999999999       0.50885354999999999        0.0000000000000000     
  0.59033407999999998       0.22171178999999999        0.0000000000000000     
  0.40109191999999999       0.78725542000000004        0.0000000000000000     
  0.35420917000000002       0.63754104000000000        0.0000000000000000     
  0.15983976999999999       0.56665573000000002        0.0000000000000000     
  0.84108459999999996       0.56757886999999996        0.0000000000000000     
  0.83902096000000004       0.43344338999999998        0.0000000000000000     
  0.43230028999999998       0.16004268999999999        0.0000000000000000     
  0.57536027999999995       0.83041363999999995        0.0000000000000000     
  0.15771898000000001       0.42747892999999998        0.0000000000000000     
  0.34021692999999997       0.34221559000000001        0.0000000000000000     
  0.56002271999999997       0.57501117999999996        0.0000000000000000     
  0.65344329000000001       0.78147597999999996        0.0000000000000000     
   0.0000000000000000        0.0000000000000000        0.0000000000000000     
   1.0000000000000000        0.0000000000000000        0.0000000000000000     
   1.0000000000000000        1.0000000000000000        0.0000000000000000     
   0.0000000000000000        1.0000000000000000        0.0000000000000000     
  0.11111111000000000        0.0000000000000000        0.0000000000000000     
  0.22222222000000000        0.0000000000000000        0.0000000000000000     
  0.33333332999999998        0.0000000000000000        0.0000000000000000     
  0.44444444000000000        0.0000000000000000        0.0000000000000000     
  0.55555555999999995        0.0000000000000000        0.0000000000000000     
  0.66666667000000002        0.0000000000000000        0.0000000000000000     
  0.77777777999999997        0.0000000000000000        0.0000000000000000     
  0.88888889000000004        0.0000000000000000        0.0000000000000000     
   1.0000000000000000       0.11111111000000000        0.0000000000000000     
   1.0000000000000000       0.22222222000000000        0.0000000000000000     
   1.0000000000000000       0.33333332999999998        0.0000000000000000     
   1.0000000000000000       0.44444444000000000        0.0000000000000000     
   1.0000000000000000       0.55555555999999995        0.0000000000000000     
   1.0000000000000000       0.66666667000000002        0.0000000000000000     
   1.0000000000000000       0.77777777999999997        0.0000000000000000     
   1.0000000000000000       0.88888889000000004        0.0000000000000000     
  0.88888889000000004        1.0000000000000000        0.0000000000000000     
  0.77777777999999997        1.0000000000000000        0.0000000000000000     
  0.66666667000000002        1.0000000000000000        0.0000000000000000     
  0.55555555999999995        1.0000000000000000        0.0000000000000000     
  0.44444444000000000        1.0000000000000000        0.0000000000000000     
  0.33333332999999998        1.0000000000000000        0.0000000000000000     
  0.22222222000000000        1.0000000000000000        0.0000000000000000     
  0.11111111000000000        1.0000000000000000        0.0000000000000000     
   0.0000000000000000       0.11111111000000000        0.0000000000000000     
   0.0000000000000000       0.22222222000000000        0.0000000000000000     
[...]
 CELL_DATA         354
 SCALARS V float
 LOOKUP_TABLE default
    0.34076947722443380953E-02
    0.44629302415150982203E-02
    0.24240807856773499002E-02
    0.21172377826675411322E-02
    0.38661797372761029859E-02
    0.42679227005225951752E-02
    0.49158953031159420555E-02
    0.47287348454254458582E-02
    0.60349955449551370354E-02
    0.72881047402796658025E-02
    0.69210605943703087592E-02
    0.71553077081964525097E-02
    0.72427097707272796931E-02
    0.71387297523533834939E-02
    0.70803897686059803773E-02
    0.69862212053598375661E-02
    0.70713507098000127210E-02
    0.76340682967990947799E-02
    0.63334966410191649230E-02
    0.80539003066843577183E-02
    0.48560061925184451470E-02
    0.50327435289605638308E-02
    0.76794870445276901608E-02
    0.64915445986784454935E-02
    0.76040615435391091873E-02
    0.65396923989659277304E-02
    0.58308789444433597321E-02
    0.60405736678951016741E-02
    0.45931066003165876843E-02
    0.45454477030047475000E-02
    0.37571390747026213106E-02
    0.41667239727550126061E-02
    0.34261293173452746046E-02
    0.30757186284122721605E-02
    0.26095755044015997437E-02
    0.28168182787627390334E-02
    0.25127645227451247609E-02
    0.25697345319076994770E-02
    0.27945524359392925375E-02
    0.26597868429706281179E-02
    0.28428500327424303593E-02
    0.28615736602048413850E-02
    0.29196377628537351426E-02
    0.28806005363024643311E-02
    0.28895074289672895672E-02
    0.27312881409259403068E-02
    0.25810740246684795406E-02
    0.26381994051545647716E-02
    0.24906481517066210440E-02
    0.23501610989389715156E-02
    0.21774468910670469537E-02
    0.22417209006978830281E-02
    0.35485507052928307904E-02
    0.36173500309118512830E-02
    0.38636869688339322074E-02
    0.37027361619842999799E-02
    0.38518725944551995832E-02
    0.37641321184825669681E-02
    0.36197049966048533941E-02
    0.37066622782108283977E-02
    0.34714222118208187470E-02
    0.32226718050651697797E-02
    0.28215781417037224740E-02
    0.30317780538866492129E-02
    0.26517233134603994914E-02
    0.24524391899959892618E-02
    0.21855416543747848736E-02
    0.22970031608116107079E-02
    0.97868678813263654953E-02
    0.84682788306116221072E-02
    0.77167776935748409739E-02
    0.90145665318144899136E-02
    0.78395027405540173432E-02
    0.76096134722838668432E-02
    0.77817412489076765933E-02
    0.84324940339668350009E-02
    0.80565084152661534805E-02
    0.78226160733986839502E-02
    0.54819512549039422361E-02
    0.65492061064395222514E-02
    0.48239549307186203181E-02
    0.52040596213385678648E-02
    0.66944405198990624556E-02
    0.49065939238654224241E-02
    0.91997677889571524007E-02
    0.94278316078846794573E-02
    0.93498391339855331517E-02
    0.97373176364172839975E-02
    0.94514099132068409015E-02
    0.97423421076527506185E-02
    0.98764658470793294937E-02
    0.51874814438249089790E-02
    0.48902252363045590339E-02
    0.41481593929747232960E-02
    0.40019502962796195400E-02
    0.43765258232973001593E-02
    0.54280284851747221189E-02
    0.78756538986598789709E-02
    0.76321219781637101437E-02
    0.77141990529500728546E-02
    0.77951857425891373649E-02
    0.77461473124462078971E-02
    0.77607162913723029898E-02
    0.10054350324271562819E-01
    0.10227916829822519817E-01
    0.10403878209731744209E-01
    0.10376809994923441235E-01
    0.10168948592762768260E-01
    0.52530355095467481941E-02
    0.52241441956585414619E-02
    0.41219830191277151074E-02
    0.51271111098590612526E-02
    0.44983905576238894519E-02
    0.43990641439235426274E-02
    0.83997687921740643580E-02
    0.49893836496007898385E-02
    0.58779047302150357751E-02
    0.72089659936552825253E-02
    0.73972543597070564841E-02
    0.49147893337493694238E-02
    0.59019414392026490340E-02
    0.33342364834599625724E-02
    0.37302733454044546997E-02
    0.30554798304084692523E-02
    0.38730406813263723934E-02
    0.41282218491684539302E-02
    0.30689113118038922889E-02
    0.32666885598581526899E-02
    0.49923226311956612686E-02
    0.66752356832365609268E-02
    0.46184731636591275922E-02
    0.82848292494963164667E-02
    0.67120412947148828942E-02
    0.45542324943488119576E-02
    0.51062067817459807356E-02
    0.77385785437382864638E-02
    0.76521795441757472708E-02
    0.78519238661805164370E-02
    0.79156222858333645520E-02
    0.80052492187793079098E-02
    0.78187636729619789527E-02
    0.77161463414012077672E-02
    0.29046420200738273971E-02
    0.27992845000195079770E-02
    0.25148318679047727137E-02
    0.32427101382006369087E-02
    0.31694011759748710357E-02
    0.25741734753011390711E-02
    0.26218727834250547815E-02
    0.79424101544910558070E-02
    0.10021346680331610912E-01
    0.97092838360289673849E-02
    0.86683125895414166184E-02
    0.10993378872198554530E-01
    0.87051432013750158767E-02
    0.79306344035793598091E-02
    0.79850428432685950642E-02
    0.78880760076534758851E-02
    0.81023698126272448994E-02
    0.76397851892574921220E-02
    0.71829979169044880921E-02
    0.74755469225094321392E-02
    0.78676060199695807551E-02
    0.75455908808457986675E-02
    0.74538311664401005890E-02
    0.35832073827581447691E-02
    0.40580047531432400856E-02
    0.35931263379456786916E-02
    0.39567225460423339350E-02
    0.42280658758732060296E-02
    0.82619316240324820744E-02
    0.79492484821638426107E-02
    0.77867887465892489732E-02
    0.79048638558108577645E-02
    0.79935858433238596299E-02
    0.51943044291079118122E-02
    0.64342443820051675035E-02
    0.65675214772113674200E-02
    0.49804336809443888051E-02
    0.54878837415846381392E-02
    0.84846272472785498608E-02
    0.79510305547650997338E-02
    0.83130651292515015532E-02
    0.80139632171320508702E-02
    0.77949903166144949435E-02
    0.48467141279918057525E-02
    0.64452276990813591948E-02
    0.51832972601042279909E-02
    0.53545068475240546052E-02
    0.64303456148060104264E-02
    0.10244322727503554077E-01
    0.86781416773377400425E-02
    0.99544481659309940608E-02
    0.91949225448155619267E-02
    0.11516638944947883011E-01
    0.35041933164987396077E-02
    0.43828718635036227613E-02
    0.37962254835166402145E-02
    0.37458344022879316686E-02
    0.41929062765513171532E-02
    0.33271992709571068803E-02
    0.31183547955165018956E-02
    0.34336376024961009872E-02
    0.30995142250316949292E-02
    0.36565364930049287090E-02
    0.94671319969838480662E-02
    0.10006036436021614050E-01
    0.95497085505998335897E-02
    0.98553369407230143745E-02
    0.10018426637137808205E-01
    0.68684675764243315055E-02
    0.64881399790195793537E-02
    0.80353885881607901159E-02
    0.78072427772410638719E-02
    0.81721251788699992430E-02
    0.77645332994192226006E-02
    0.78358712975548170526E-02
    0.78351964123534872941E-02
    0.77059739390930000538E-02
    0.94593079620740767866E-02
    0.10175680842881671892E-01
    0.10133421619475131009E-01
    0.82064740520725234368E-02
    0.48077004145521528428E-02
    0.69836696130881857625E-02
    0.30575588391338831898E-02
    0.32739190737313289027E-02
    0.38279029998501963410E-02
    0.37793978809018352952E-02
    0.37989776393337051572E-02
    0.42365798116932862349E-02
    0.43352848539100321060E-02
    0.48839008128194177222E-02
    0.51789877188331660818E-02
    0.76105147250980775819E-02
    0.63940639360758775786E-02
    0.83149997775696371516E-02
    0.89194817680251572978E-02
    0.75902581760600561916E-02
    0.11073902141531633686E-01
    0.89620166121417051130E-02
    0.66674081793687677705E-02
    0.47263184443757828845E-02
    0.49032759528611054647E-02
    0.88614941580237808344E-02
    0.75977771358328727302E-02
    0.36975917809258249461E-02
    0.32097139709557102535E-02
    0.29651304498120572423E-02
    0.51318760303744933443E-02
    0.44372378673287644901E-02
    0.42763139403851823869E-02
    0.81154944961901853001E-02
    0.77791910408739955649E-02
    0.49952566004055013599E-02
    0.77392944628266492624E-02
    0.79856253281739147942E-02
    0.78522026897767521758E-02
    0.44299943038865162437E-02
    0.45440189171318092279E-02
    0.34476320483413924745E-02
    0.84951027901826736688E-02
    0.78574101401897161745E-02
    0.75195738146574316735E-02
    0.33402333810639687518E-02
    0.32593493023189380395E-02
    0.26902812631409301486E-02
    0.31410063894904438099E-02
    0.28498411344237578081E-02
    0.25616039395359186531E-02
    0.73140140076273108677E-02
    0.11123770941531017920E-01
    0.93047993323846275165E-02
    0.87075155118975303137E-02
    0.52588968444017229059E-02
    0.76239368662422563050E-02
    0.78624830547263900582E-02
    0.75323871678547107966E-02
    0.43227490135531523863E-02
    0.72367782070903441394E-02
    0.59871105550098734777E-02
    0.47321619860737924174E-02
    0.93354922221063427884E-02
    0.10187972959291857755E-01
    0.10039680933149724637E-01
    0.76736679741009946459E-02
    0.74533690549431780986E-02
    0.40756067562316483296E-02
    0.44672313508054319053E-02
    0.27689441219137041379E-02
    0.29219127267057234086E-02
    0.78474567021556054097E-02
    0.62966284903258002217E-02
    0.23355788031561310579E-02
    0.23736419323445723251E-02
    0.82430998882748202777E-02
    0.45235616248410484216E-02
    0.44997872619736700717E-02
    0.89147912228488140896E-02
    0.36232641541214223938E-02
    0.77859635086858537678E-02
    0.10957712755365032337E-01
    0.38141309255661321950E-02
    0.89569765436277488935E-02
    0.83330124287526678023E-02
    0.78146447130685806753E-02
    0.58172946270649960460E-02
    0.77270530596369214893E-02
    0.36629918225526115171E-02
    0.40170128889369608599E-02
    0.54545753144581987648E-02
    0.80955659692318361620E-02
    0.77318580227265553198E-02
    0.48755213006292669881E-02
    0.77365497401574584435E-02
    0.80950655373693957556E-02
    0.10273963102181307358E-01
    0.43973554533024497570E-02
    0.33719952717461238942E-02
    0.30937365113249603796E-02
    0.47032095462019108192E-02
    0.44110215475809243929E-02
    0.23683932488125000043E-02
    0.22846491525129503271E-02
    0.20455994238035577273E-02
    0.20474970050087040740E-02
    0.42337705957684575522E-02
    0.47494141600497976133E-02
    0.58972992203249231802E-02
    0.57280804578247104114E-02
    0.57751873973724597924E-02
    0.57121606107935554708E-02
    0.65121251619300324354E-02
    0.49227662376520806009E-02
    0.61692668682710267644E-02
    0.50792585120318436975E-02
    0.46234980612414548068E-02
    0.39863179005800034385E-02
    0.33507353790079522776E-02
    0.28091438687934885965E-02
    0.24468027631566768333E-02
    0.25806182818553565633E-02
    0.26396323314475532602E-02
    0.26292834755098025944E-02
    0.25201588600114199247E-02
    0.23746067103205090350E-02
    0.22013501184083676676E-02
    0.33182687475570610443E-02
    0.34279349375024793962E-02
    0.33666272687811250354E-02
    0.31866609832616765198E-02
    0.28912058026072662287E-02
    0.25692145917294430084E-02
    0.22812496528704698760E-02
