# vtk DataFile Version 3.0
LAPLACIEN  2D
ASCII
DATASET UNSTRUCTURED_GRID
 POINTS         391  float
  0.50371505999999999       0.50367786999999997        0.0000000000000000     
  0.29013556000000001       0.29014535000000002        0.0000000000000000     
  0.70165584999999997       0.71206597999999999        0.0000000000000000     
  0.70304188999999995       0.30176619999999998        0.0000000000000000     
  0.30920671999999999       0.71149227999999998        0.0000000000000000     
  0.79044983999999996       0.49884783999999999        0.0000000000000000     
  0.49102621000000002       0.20968644000000000        0.0000000000000000     
  0.49912957000000002       0.77208717000000004        0.0000000000000000     
  0.21724072999999999       0.48989389000000000        0.0000000000000000     
  0.83255933999999998       0.83046598000000005        0.0000000000000000     
  0.16646774000000000       0.17015694000000001        0.0000000000000000     
  0.83054514999999995       0.16736480000000001        0.0000000000000000     
  0.16953130999999999       0.83265739000000005        0.0000000000000000     
  0.42166445000000002       0.36345201999999999        0.0000000000000000     
  0.64462200999999997       0.56347807999999999        0.0000000000000000     
  0.35324633999999999       0.56311191000000005        0.0000000000000000     
  0.65456411000000003       0.84856860999999995        0.0000000000000000     
  0.35141477999999998       0.15563974000000000        0.0000000000000000     
  0.15290967000000000       0.35206625000000003        0.0000000000000000     
  0.82942241000000005       0.34936866000000000        0.0000000000000000     
  0.84390527000000004       0.64441694999999999        0.0000000000000000     
  0.63699174999999997       0.14284276000000001        0.0000000000000000     
  0.15620682999999999       0.64648446999999998        0.0000000000000000     
  0.36426062999999997       0.85756310999999996        0.0000000000000000     
  0.63489340999999999       0.40519052000000000        0.0000000000000000     
  0.52518872999999999       0.65957078000000002        0.0000000000000000     
  0.32158959999999998       0.42298103999999997        0.0000000000000000     
  0.58861710000000000       0.31711036999999997        0.0000000000000000     
  0.42078418000000001       0.69497151999999995        0.0000000000000000     
  0.48608786999999998       0.89334152000000000        0.0000000000000000     
   9.7084320000000002E-002  0.50000000000000000        0.0000000000000000     
  0.90291568000000000       0.50000000000000000        0.0000000000000000     
  0.51392453000000005       0.10668648999999999        0.0000000000000000     
  0.59792566999999996       0.73122754000000001        0.0000000000000000     
  0.74510058999999995       0.41124730999999998        0.0000000000000000     
  0.73212551999999997       0.90191560000000004        0.0000000000000000     
   9.7784830000000003E-002  0.26957329000000002        0.0000000000000000     
  0.26711221000000002        9.8671499999999995E-002   0.0000000000000000     
  0.90191560000000004       0.26787448000000003        0.0000000000000000     
  0.90118569000000004       0.73039821000000005        0.0000000000000000     
  0.73122947000000005        9.8017859999999998E-002   0.0000000000000000     
   9.8084400000000002E-002  0.73212551999999997        0.0000000000000000     
  0.26957329000000002       0.90221516999999996        0.0000000000000000     
  0.39283522999999998       0.25360379000000000        0.0000000000000000     
  0.74480864000000002       0.60495284999999999        0.0000000000000000     
  0.25505132000000003       0.60593640999999998        0.0000000000000000     
  0.52159297999999998       0.40671636000000000        0.0000000000000000     
  0.40768852000000000       0.47699891000000000        0.0000000000000000     
   9.1467049999999994E-002   9.1876959999999994E-002   0.0000000000000000     
  0.90842484999999995       0.90819225000000003        0.0000000000000000     
  0.90820104999999995        9.1566729999999999E-002   0.0000000000000000     
   9.1807449999999999E-002  0.90843574000000005        0.0000000000000000     
  0.27098960000000000       0.20527094000000001        0.0000000000000000     
  0.73457293999999995       0.79835387000000002        0.0000000000000000     
  0.79817773000000003       0.25713470999999999        0.0000000000000000     
  0.20747797000000001       0.72863946000000002        0.0000000000000000     
  0.20175195000000001       0.27583914999999998        0.0000000000000000     
  0.79603889000000005       0.72159035000000005        0.0000000000000000     
  0.71761666000000002       0.19748431999999999        0.0000000000000000     
  0.28462607000000001       0.80251899999999998        0.0000000000000000     
  0.69134598999999997       0.49261972999999998        0.0000000000000000     
  0.44720578999999999       0.58582935999999997        0.0000000000000000     
  0.24242269999999999       0.37228174000000003        0.0000000000000000     
  0.38265623999999998       0.93072131999999996        0.0000000000000000     
  0.60971754000000000       0.91988369000000003        0.0000000000000000     
   7.9163609999999995E-002  0.60979116000000000        0.0000000000000000     
  0.92010649000000000       0.61081183999999999        0.0000000000000000     
  0.61954008999999999        7.1530830000000004E-002   0.0000000000000000     
  0.91882012999999996       0.38917363999999999        0.0000000000000000     
  0.39086346000000000        8.0652249999999995E-002   0.0000000000000000     
   7.9183480000000001E-002  0.38966213000000000        0.0000000000000000     
  0.59114111999999996       0.49294315000000000        0.0000000000000000     
  0.63337980999999999       0.64485914000000000        0.0000000000000000     
  0.50012352000000004       0.29676539000000002        0.0000000000000000     
  0.82552601000000003       0.92753492000000004        0.0000000000000000     
  0.92774772999999999       0.82498556999999995        0.0000000000000000     
   7.1970870000000006E-002  0.17510291000000000        0.0000000000000000     
  0.17422821999999999        7.2635640000000001E-002   0.0000000000000000     
  0.82510813000000005        7.2134840000000006E-002   0.0000000000000000     
  0.92754665000000003       0.17446275999999999        0.0000000000000000     
  0.17501022999999999       0.92789951999999998        0.0000000000000000     
   7.2464680000000004E-002  0.82554053000000005        0.0000000000000000     
  0.30731587999999999       0.50885354999999999        0.0000000000000000     
  0.59033407999999998       0.22171178999999999        0.0000000000000000     
  0.40109191999999999       0.78725542000000004        0.0000000000000000     
  0.35420917000000002       0.63754104000000000        0.0000000000000000     
  0.15983976999999999       0.56665573000000002        0.0000000000000000     
  0.84108459999999996       0.56757886999999996        0.0000000000000000     
  0.83902096000000004       0.43344338999999998        0.0000000000000000     
  0.43230028999999998       0.16004268999999999        0.0000000000000000     
  0.57536027999999995       0.83041363999999995        0.0000000000000000     
  0.15771898000000001       0.42747892999999998        0.0000000000000000     
  0.34021692999999997       0.34221559000000001        0.0000000000000000     
  0.56002271999999997       0.57501117999999996        0.0000000000000000     
  0.65344329000000001       0.78147597999999996        0.0000000000000000     
   0.0000000000000000        0.0000000000000000        0.0000000000000000     
   1.0000000000000000        0.0000000000000000        0.0000000000000000     
   1.0000000000000000        1.0000000000000000        0.0000000000000000     
   0.0000000000000000        1.0000000000000000        0.0000000000000000     
  0.11111111000000000        0.0000000000000000        0.0000000000000000     
  0.22222222000000000        0.0000000000000000        0.0000000000000000     
  0.33333332999999998        0.0000000000000000        0.0000000000000000     
  0.44444444000000000        0.0000000000000000        0.0000000000000000     
  0.55555555999999995        0.0000000000000000        0.0000000000000000     
  0.66666667000000002        0.0000000000000000        0.0000000000000000     
  0.77777777999999997        0.0000000000000000        0.0000000000000000     
  0.88888889000000004        0.0000000000000000        0.0000000000000000     
   1.0000000000000000       0.11111111000000000        0.0000000000000000     
   1.0000000000000000       0.22222222000000000        0.0000000000000000     
   1.0000000000000000       0.33333332999999998        0.0000000000000000     
   1.0000000000000000       0.44444444000000000        0.0000000000000000     
   1.0000000000000000       0.55555555999999995        0.0000000000000000     
   1.0000000000000000       0.66666667000000002        0.0000000000000000     
   1.0000000000000000       0.77777777999999997        0.0000000000000000     
   1.0000000000000000       0.88888889000000004        0.0000000000000000     
  0.88888889000000004        1.0000000000000000        0.0000000000000000     
  0.77777777999999997        1.0000000000000000        0.0000000000000000     
  0.66666667000000002        1.0000000000000000        0.0000000000000000     
  0.55555555999999995        1.0000000000000000        0.0000000000000000     
  0.44444444000000000        1.0000000000000000        0.0000000000000000     
  0.33333332999999998        1.0000000000000000        0.0000000000000000     
  0.22222222000000000        1.0000000000000000        0.0000000000000000     
  0.11111111000000000        1.0000000000000000        0.0000000000000000     
   0.0000000000000000       0.11111111000000000        0.0000000000000000     
   0.0000000000000000       0.22222222000000000        0.0000000000000000     
[...]
 CELL_DATA         354
 SCALARS V float
 LOOKUP_TABLE default
    0.34262201710877565955E-02
    0.44731180991937190966E-02
    0.24463936786350819891E-02
    0.21675805034755218047E-02
    0.39118893312279400323E-02
    0.43373807581757505350E-02
    0.50689993941882179052E-02
    0.48136587734284421239E-02
    0.73516009760928808028E-02
    0.98759514415572968032E-02
    0.10891722265513511733E-01
    0.10488597956575931858E-01
    0.11244113280473352900E-01
    0.11102146380551583538E-01
    0.10837881728700128614E-01
    0.10893137822392231356E-01
    0.10534357107334474044E-01
    0.99116093422346746716E-02
    0.69135563933293928823E-02
    0.92782057417532919075E-02
    0.49822873098916689236E-02
    0.51877313099282394357E-02
    0.86834178425304452825E-02
    0.71381149327423027567E-02
    0.88267881664793219898E-02
    0.75071366157908724775E-02
    0.62096580068891297360E-02
    0.65407520987890779840E-02
    0.45983234662138276067E-02
    0.45998612003185865987E-02
    0.37787366816302717445E-02
    0.42092064049791327526E-02
    0.34490277210121708835E-02
    0.30892274352504697256E-02
    0.26249485784946889957E-02
    0.28321743700326497233E-02
    0.25320884104808065104E-02
    0.25841320561867239455E-02
    0.28052546060216851723E-02
    0.26709764774616169374E-02
    0.28470616723292674691E-02
    0.28674758363291682171E-02
    0.29244152676358267824E-02
    0.28858546212555502390E-02
    0.28988293240278855886E-02
    0.27369906555249198452E-02
    0.25894647412579687232E-02
    0.26440913199416039153E-02
    0.25052375274967962453E-02
    0.23720582170792849086E-02
    0.22119606146644597497E-02
    0.22665516474735677120E-02
    0.35683092142900631021E-02
    0.36355995722908060995E-02
    0.38869139002663324889E-02
    0.37173642214622104607E-02
    0.38686811970781286724E-02
    0.37797631411714957203E-02
    0.36350433865167666378E-02
    0.37250214043972138672E-02
    0.34884930149832720642E-02
    0.32320301647254237251E-02
    0.28250105140522601549E-02
    0.30412191305934110387E-02
    0.26625386800575691695E-02
    0.24677943446676916736E-02
    0.22094994900362318301E-02
    0.23153989710883718031E-02
    0.12822663680578294879E-01
    0.12158754752415512623E-01
    0.11776362641647641558E-01
    0.12372935146784204419E-01
    0.11859639094230661413E-01
    0.11702078552541378409E-01
    0.11300831169349257604E-01
    0.11186531122969705157E-01
    0.11272347511049742724E-01
    0.11769669776152206705E-01
    0.58361305612487203789E-02
    0.73866983873398977048E-02
    0.49884791421466500097E-02
    0.54572875736736171925E-02
    0.76364583916021843216E-02
    0.50614231887363917567E-02
    0.12531331270088388874E-01
    0.10174048769491053981E-01
    0.93128899466059997247E-02
    0.12053285445681509447E-01
    0.12443915264513147334E-01
    0.11244844562330533200E-01
    0.10167603341222703622E-01
    0.54249512098982159009E-02
    0.50558605141536143435E-02
    0.42403560526691353588E-02
    0.40787345054888353435E-02
    0.44748445349379294134E-02
    0.57048998098687565134E-02
    0.10690888046700930403E-01
    0.11714388961054880700E-01
    0.10979427043863671312E-01
    0.11751146669682081131E-01
    0.10339307799213879810E-01
    0.11373403770823662523E-01
    0.12107347614977708589E-01
    0.12182900659892005601E-01
    0.11163062446527234964E-01
    0.11174287806321334116E-01
    0.12790201326327060166E-01
    0.55083285602910304207E-02
    0.54866472796375369628E-02
    0.42181329171914611065E-02
    0.53412130306966726714E-02
    0.46182661280980245866E-02
    0.45148856812119156010E-02
    0.10637227505271570210E-01
    0.51629840485450904930E-02
    0.64136680850449909880E-02
    0.86982190403134124201E-02
    0.90236612132859467250E-02
    0.50490556566808557359E-02
    0.65101664592336220064E-02
    0.33617714459038073108E-02
    0.37775123233765692428E-02
    0.30799508868760484305E-02
    0.39425437067368840349E-02
    0.42130107075061765803E-02
    0.30872734701647024970E-02
    0.32925714281237979109E-02
    0.51511083087920402773E-02
    0.75101586014999742458E-02
    0.47239237852989834909E-02
    0.97049374917207720248E-02
    0.75090191191582141353E-02
    0.46379643073880981105E-02
    0.53177416646508924442E-02
    0.11308003839414819403E-01
    0.11581206922205915938E-01
    0.10395507800720677274E-01
    0.11828051364731169762E-01
    0.11954307740502215923E-01
    0.11053397969639293733E-01
    0.10538911214308353814E-01
    0.29164477953002357867E-02
    0.28076903947164702849E-02
    0.25279116701628500004E-02
    0.32739138734693370471E-02
    0.31946368042045534749E-02
    0.25828511881567269015E-02
    0.26303441697153508855E-02
    0.11932319291390852678E-01
    0.12502024916024229162E-01
    0.11441997634048444582E-01
    0.12025108464501593070E-01
    0.12207561472161447547E-01
    0.12414478168429235461E-01
    0.11441636961052707722E-01
    0.11947353706228812376E-01
    0.11902507666012834830E-01
    0.11483264916238581504E-01
    0.11605050989688383764E-01
    0.80090644335743723520E-02
    0.11055205381904558565E-01
    0.10605671592528335967E-01
    0.96013162446288661395E-02
    0.89214066524139559733E-02
    0.36393197748998706333E-02
    0.41603086668612083293E-02
    0.36537555498081983850E-02
    0.40413007888335317555E-02
    0.43354527600792608713E-02
    0.11473539221054290804E-01
    0.11901223039048086649E-01
    0.11432864890492021315E-01
    0.11577504656182719886E-01
    0.11969335550888493894E-01
    0.53885002683047777614E-02
    0.70519105922998851291E-02
    0.72555852415473560610E-02
    0.51325027198647309168E-02
    0.58074365633964397659E-02
    0.12085569983644189537E-01
    0.11716735012150652703E-01
    0.12125702870064038533E-01
    0.11630636448645696734E-01
    0.11727026819200379176E-01
    0.50079565655263983195E-02
    0.70438055111579165463E-02
    0.54092807090711002641E-02
    0.56015219973806215994E-02
    0.70400402214247466068E-02
    0.12746608683761253764E-01
    0.12248064732355058021E-01
    0.12115825050298279636E-01
    0.12653734825864935282E-01
    0.13109472843293850167E-01
    0.35571294587794415401E-02
    0.44846722836047528404E-02
    0.38575435237655948673E-02
    0.38180901625074945525E-02
    0.42873447182293147883E-02
    0.33450287447818020936E-02
    0.31463724958300611813E-02
    0.34696979050095697744E-02
    0.31171546980882799092E-02
    0.36930305614013411372E-02
    0.95062247776164648938E-02
    0.12183457389685237171E-01
    0.10328779276525422090E-01
    0.12776127453638687348E-01
    0.12273675549118765599E-01
    0.78417562581232572172E-02
    0.71655902598375710577E-02
    0.10506285385682450143E-01
    0.97545347381256131830E-02
    0.11272112662075749190E-01
    0.11571790780673808785E-01
    0.10734295140836392496E-01
    0.10869169052231127115E-01
    0.11656317934543339657E-01
    0.94427439366709439023E-02
    0.10194954370538935468E-01
    0.10151088465014179024E-01
    0.96924225704079942922E-02
    0.49476081359527430276E-02
    0.78664321256490064155E-02
    0.30721908193766592210E-02
    0.32977135090808381082E-02
    0.38847175341796872337E-02
    0.38420009306488040433E-02
    0.38526976058000242734E-02
    0.43051674306012937057E-02
    0.44263267954973394003E-02
    0.50456959386688503277E-02
    0.54187398681876663975E-02
    0.91574814416717914556E-02
    0.78675489315769252252E-02
    0.11032666007225532673E-01
    0.12416575465991818925E-01
    0.11488647842225068602E-01
    0.12847020164582939952E-01
    0.12257177114045742644E-01
    0.74752003320200741815E-02
    0.48709154660203941162E-02
    0.50553890475195026322E-02
    0.12276179086473010954E-01
    0.11690133158699876278E-01
    0.37582394804786751000E-02
    0.32363215331177577413E-02
    0.29802337939570161182E-02
    0.53156801374533973331E-02
    0.45077504195391616959E-02
    0.43317621625334808838E-02
    0.10404609418277080066E-01
    0.10588090926715594542E-01
    0.51386835255080049595E-02
    0.11781197537821752608E-01
    0.10507454707996627744E-01
    0.10053299868386201404E-01
    0.45428802972120839454E-02
    0.46561637626917071545E-02
    0.34793443013154384119E-02
    0.12136008257494767040E-01
    0.11717237212493692919E-01
    0.11063871593824319006E-01
    0.33785062774266821917E-02
    0.32920883317024804589E-02
    0.27008875426136175722E-02
    0.31680648900087966455E-02
    0.28650334054575446116E-02
    0.25701577603024520699E-02
    0.11418794383975562623E-01
    0.12698606747082938351E-01
    0.12494434231640441646E-01
    0.12395919733455038059E-01
    0.55000002977015627348E-02
    0.11599477427581430730E-01
    0.10018551284634680948E-01
    0.92953383579280797477E-02
    0.44203395472344692366E-02
    0.79820126052369266834E-02
    0.66434614519548258055E-02
    0.48571301868649396222E-02
    0.12417735849689037070E-01
    0.12306413676666322354E-01
    0.10394448468546750586E-01
    0.11518070583427911929E-01
    0.11082373116835193827E-01
    0.41311139663790822849E-02
    0.45628934588572665765E-02
    0.27848775667688374300E-02
    0.29427552260602139744E-02
    0.96980740222637022707E-02
    0.76424969290303382610E-02
    0.23462799364696593565E-02
    0.23840887692930627650E-02
    0.10371922943271352086E-01
    0.46552579543853514488E-02
    0.46405468370811827489E-02
    0.12102896257316805156E-01
    0.36771052683072613480E-02
    0.95555431100345471218E-02
    0.11823205117120207455E-01
    0.38649395825024433770E-02
    0.12370461924496617412E-01
    0.99628659634292491415E-02
    0.11534872245001303800E-01
    0.64465287400821066899E-02
    0.11543211043412326955E-01
    0.37230551148519012809E-02
    0.41000794670590229307E-02
    0.57916803857807957687E-02
    0.11200281545694920973E-01
    0.11749646774238810959E-01
    0.50235840754201737876E-02
    0.11796052458074194474E-01
    0.11400838210523702582E-01
    0.10394011933710365844E-01
    0.45150079038522635683E-02
    0.33953260233636024454E-02
    0.30945059225628477294E-02
    0.47779874725889046744E-02
    0.44422004005255704903E-02
    0.23904569985743998224E-02
    0.23099991333020873305E-02
    0.21055928295896160669E-02
    0.20960824324210303865E-02
    0.42910601197798181952E-02
    0.48874881871513791917E-02
    0.72562475284788539517E-02
    0.77233896684663731758E-02
    0.77311257802417203411E-02
    0.75203298943370827656E-02
    0.71956858476373997818E-02
    0.49946382841428906690E-02
    0.66042702238829908978E-02
    0.52515074337878076341E-02
    0.46605494541124368318E-02
    0.40001159934600358584E-02
    0.33578742956094941897E-02
    0.28231441336535349415E-02
    0.24602205581781316952E-02
    0.25837791886930711743E-02
    0.26396705340648177543E-02
    0.26296926149786108845E-02
    0.25269976184152539121E-02
    0.23905580986518636805E-02
    0.22372912886642298651E-02
    0.33163025385859828086E-02
    0.34214351192676608661E-02
    0.33594497263021044255E-02
    0.31819351065788263784E-02
    0.28903082964331508822E-02
    0.25754876129331465140E-02
    0.23069848276753893677E-02
