# vtk DataFile Version 3.0
LAPLACIEN  2D
ASCII
DATASET UNSTRUCTURED_GRID
 POINTS         391  float
  0.50371505999999999       0.50367786999999997        0.0000000000000000     
  0.29013556000000001       0.29014535000000002        0.0000000000000000     
  0.70165584999999997       0.71206597999999999        0.0000000000000000     
  0.70304188999999995       0.30176619999999998        0.0000000000000000     
  0.30920671999999999       0.71149227999999998        0.0000000000000000     
  0.79044983999999996       0.49884783999999999        0.0000000000000000     
  0.49102621000000002       0.20968644000000000        0.0000000000000000     
  0.49912957000000002       0.77208717000000004        0.0000000000000000     
  0.21724072999999999       0.48989389000000000        0.0000000000000000     
  0.83255933999999998       0.83046598000000005        0.0000000000000000     
  0.16646774000000000       0.17015694000000001        0.0000000000000000     
  0.83054514999999995       0.16736480000000001        0.0000000000000000     
  0.16953130999999999       0.83265739000000005        0.0000000000000000     
  0.42166445000000002       0.36345201999999999        0.0000000000000000     
  0.64462200999999997       0.56347807999999999        0.0000000000000000     
  0.35324633999999999       0.56311191000000005        0.0000000000000000     
  0.65456411000000003       0.84856860999999995        0.0000000000000000     
  0.35141477999999998       0.15563974000000000        0.0000000000000000     
  0.15290967000000000       0.35206625000000003        0.0000000000000000     
  0.82942241000000005       0.34936866000000000        0.0000000000000000     
  0.84390527000000004       0.64441694999999999        0.0000000000000000     
  0.63699174999999997       0.14284276000000001        0.0000000000000000     
  0.15620682999999999       0.64648446999999998        0.0000000000000000     
  0.36426062999999997       0.85756310999999996        0.0000000000000000     
  0.63489340999999999       0.40519052000000000        0.0000000000000000     
  0.52518872999999999       0.65957078000000002        0.0000000000000000     
  0.32158959999999998       0.42298103999999997        0.0000000000000000     
  0.58861710000000000       0.31711036999999997        0.0000000000000000     
  0.42078418000000001       0.69497151999999995        0.0000000000000000     
  0.48608786999999998       0.89334152000000000        0.0000000000000000     
   9.7084320000000002E-002  0.50000000000000000        0.0000000000000000     
  0.90291568000000000       0.50000000000000000        0.0000000000000000     
  0.51392453000000005       0.10668648999999999        0.0000000000000000     
  0.59792566999999996       0.73122754000000001        0.0000000000000000     
  0.74510058999999995       0.41124730999999998        0.0000000000000000     
  0.73212551999999997       0.90191560000000004        0.0000000000000000     
   9.7784830000000003E-002  0.26957329000000002        0.0000000000000000     
  0.26711221000000002        9.8671499999999995E-002   0.0000000000000000     
  0.90191560000000004       0.26787448000000003        0.0000000000000000     
  0.90118569000000004       0.73039821000000005        0.0000000000000000     
  0.73122947000000005        9.8017859999999998E-002   0.0000000000000000     
   9.8084400000000002E-002  0.73212551999999997        0.0000000000000000     
  0.26957329000000002       0.90221516999999996        0.0000000000000000     
  0.39283522999999998       0.25360379000000000        0.0000000000000000     
  0.74480864000000002       0.60495284999999999        0.0000000000000000     
  0.25505132000000003       0.60593640999999998        0.0000000000000000     
  0.52159297999999998       0.40671636000000000        0.0000000000000000     
  0.40768852000000000       0.47699891000000000        0.0000000000000000     
   9.1467049999999994E-002   9.1876959999999994E-002   0.0000000000000000     
  0.90842484999999995       0.90819225000000003        0.0000000000000000     
  0.90820104999999995        9.1566729999999999E-002   0.0000000000000000     
   9.1807449999999999E-002  0.90843574000000005        0.0000000000000000     
  0.27098960000000000       0.20527094000000001        0.0000000000000000     
  0.73457293999999995       0.79835387000000002        0.0000000000000000     
  0.79817773000000003       0.25713470999999999        0.0000000000000000     
  0.20747797000000001       0.72863946000000002        0.0000000000000000     
  0.20175195000000001       0.27583914999999998        0.0000000000000000     
  0.79603889000000005       0.72159035000000005        0.0000000000000000     
  0.71761666000000002       0.19748431999999999        0.0000000000000000     
  0.28462607000000001       0.80251899999999998        0.0000000000000000     
  0.69134598999999997       0.49261972999999998        0.0000000000000000     
  0.44720578999999999       0.58582935999999997        0.0000000000000000     
  0.24242269999999999       0.37228174000000003        0.0000000000000000     
  0.38265623999999998       0.93072131999999996        0.0000000000000000     
  0.60971754000000000       0.91988369000000003        0.0000000000000000     
   7.9163609999999995E-002  0.60979116000000000        0.0000000000000000     
  0.92010649000000000       0.61081183999999999        0.0000000000000000     
  0.61954008999999999        7.1530830000000004E-002   0.0000000000000000     
  0.91882012999999996       0.38917363999999999        0.0000000000000000     
  0.39086346000000000        8.0652249999999995E-002   0.0000000000000000     
   7.9183480000000001E-002  0.38966213000000000        0.0000000000000000     
  0.59114111999999996       0.49294315000000000        0.0000000000000000     
  0.63337980999999999       0.64485914000000000        0.0000000000000000     
  0.50012352000000004       0.29676539000000002        0.0000000000000000     
  0.82552601000000003       0.92753492000000004        0.0000000000000000     
  0.92774772999999999       0.82498556999999995        0.0000000000000000     
   7.1970870000000006E-002  0.17510291000000000        0.0000000000000000     
  0.17422821999999999        7.2635640000000001E-002   0.0000000000000000     
  0.82510813000000005        7.2134840000000006E-002   0.0000000000000000     
  0.92754665000000003       0.17446275999999999        0.0000000000000000     
  0.17501022999999999       0.92789951999999998        0.0000000000000000     
   7.2464680000000004E-002  0.82554053000000005        0.0000000000000000     
  0.30731587999999999       0.50885354999999999        0.0000000000000000     
  0.59033407999999998       0.22171178999999999        0.0000000000000000     
  0.40109191999999999       0.78725542000000004        0.0000000000000000     
  0.35420917000000002       0.63754104000000000        0.0000000000000000     
  0.15983976999999999       0.56665573000000002        0.0000000000000000     
  0.84108459999999996       0.56757886999999996        0.0000000000000000     
  0.83902096000000004       0.43344338999999998        0.0000000000000000     
  0.43230028999999998       0.16004268999999999        0.0000000000000000     
  0.57536027999999995       0.83041363999999995        0.0000000000000000     
  0.15771898000000001       0.42747892999999998        0.0000000000000000     
  0.34021692999999997       0.34221559000000001        0.0000000000000000     
  0.56002271999999997       0.57501117999999996        0.0000000000000000     
  0.65344329000000001       0.78147597999999996        0.0000000000000000     
   0.0000000000000000        0.0000000000000000        0.0000000000000000     
   1.0000000000000000        0.0000000000000000        0.0000000000000000     
   1.0000000000000000        1.0000000000000000        0.0000000000000000     
   0.0000000000000000        1.0000000000000000        0.0000000000000000     
  0.11111111000000000        0.0000000000000000        0.0000000000000000     
  0.22222222000000000        0.0000000000000000        0.0000000000000000     
  0.33333332999999998        0.0000000000000000        0.0000000000000000     
  0.44444444000000000        0.0000000000000000        0.0000000000000000     
  0.55555555999999995        0.0000000000000000        0.0000000000000000     
  0.66666667000000002        0.0000000000000000        0.0000000000000000     
  0.77777777999999997        0.0000000000000000        0.0000000000000000     
  0.88888889000000004        0.0000000000000000        0.0000000000000000     
   1.0000000000000000       0.11111111000000000        0.0000000000000000     
   1.0000000000000000       0.22222222000000000        0.0000000000000000     
   1.0000000000000000       0.33333332999999998        0.0000000000000000     
   1.0000000000000000       0.44444444000000000        0.0000000000000000     
   1.0000000000000000       0.55555555999999995        0.0000000000000000     
   1.0000000000000000       0.66666667000000002        0.0000000000000000     
   1.0000000000000000       0.77777777999999997        0.0000000000000000     
   1.0000000000000000       0.88888889000000004        0.0000000000000000     
  0.88888889000000004        1.0000000000000000        0.0000000000000000     
  0.77777777999999997        1.0000000000000000        0.0000000000000000     
  0.66666667000000002        1.0000000000000000        0.0000000000000000     
  0.55555555999999995        1.0000000000000000        0.0000000000000000     
  0.44444444000000000        1.0000000000000000        0.0000000000000000     
  0.33333332999999998        1.0000000000000000        0.0000000000000000     
  0.22222222000000000        1.0000000000000000        0.0000000000000000     
  0.11111111000000000        1.0000000000000000        0.0000000000000000     
   0.0000000000000000       0.11111111000000000        0.0000000000000000     
   0.0000000000000000       0.22222222000000000        0.0000000000000000     
[...]
 CELL_DATA         354
 SCALARS V float
 LOOKUP_TABLE default
    0.34057283192005594410E-02
    0.45664007291513208919E-02
    0.24633649578963403778E-02
    0.22659255712499945870E-02
    0.39239451285684612963E-02
    0.43924514392962785148E-02
    0.65822010386502064969E-02
    0.49002617663108918519E-02
    0.10868277099324037682E-01
    0.14600402979559241184E-01
    0.18435507271322388451E-01
    0.16755386781535548668E-01
    0.18584755693831601225E-01
    0.18421875775556040278E-01
    0.17946919044468177817E-01
    0.18354039695075461541E-01
    0.17073832568360550188E-01
    0.14335200138714084689E-01
    0.87313204988226904985E-02
    0.12446828746489210782E-01
    0.61857674360955156034E-02
    0.65722669493421146877E-02
    0.11350740490146692119E-01
    0.86628461364962553587E-02
    0.11920396801332458492E-01
    0.10333100383831672620E-01
    0.76790974659732775046E-02
    0.91712900122275023418E-02
    0.45309819793381330560E-02
    0.46231408776010148379E-02
    0.37556375763482786022E-02
    0.42203144793309249616E-02
    0.34402333261528638374E-02
    0.30654615186733206664E-02
    0.26196799554533216868E-02
    0.28213090293199567619E-02
    0.25390930555618113074E-02
    0.25766410906460585420E-02
    0.27827330579368587775E-02
    0.26519169520638199641E-02
    0.28098552708561842610E-02
    0.28335521084902541393E-02
    0.28873198730189350916E-02
    0.28501173672823539376E-02
    0.28709608856870958045E-02
    0.27028168124102330827E-02
    0.25674575384922451379E-02
    0.26147472721707700274E-02
    0.25001758421525728179E-02
    0.23904658071954767301E-02
    0.22689094282095818855E-02
    0.22955800484233852832E-02
    0.35427813886692522197E-02
    0.36008893132607874485E-02
    0.38617523919843659529E-02
    0.36743977700969903365E-02
    0.38354924542573654717E-02
    0.37449622051967564051E-02
    0.36027543324544794232E-02
    0.36952483564987024557E-02
    0.34644621584049234767E-02
    0.31955471120125853758E-02
    0.27869705553202782020E-02
    0.30113178365355638098E-02
    0.26461898642138057328E-02
    0.24658448677337143316E-02
    0.22348244816155085971E-02
    0.23252274284899458051E-02
    0.17924410570824250710E-01
    0.18356615504044809101E-01
    0.18842027505641595342E-01
    0.18204730998326739549E-01
    0.19042915990642908519E-01
    0.19145836290044137423E-01
    0.17289880047430476739E-01
    0.15257493876730504612E-01
    0.16357119976968655106E-01
    0.18495447462377516412E-01
    0.73903545144636539899E-02
    0.98360302056818178784E-02
    0.52621647148951584266E-02
    0.64729377821160878279E-02
    0.10602196725077360495E-01
    0.53409265809735567698E-02
    0.18212030549241562533E-01
    0.13039305511243551999E-01
    0.96287081625662969409E-02
    0.17003723868642177386E-01
    0.17791202424209600491E-01
    0.15160478649614395064E-01
    0.11696614351627596107E-01
    0.59310329580890136514E-02
    0.53566608928858339134E-02
    0.43598597439249067026E-02
    0.41701958740538612111E-02
    0.46054793645523483744E-02
    0.63228174782170212115E-02
    0.15140668697321040675E-01
    0.19050600344954159854E-01
    0.16490283913070780120E-01
    0.18557402342864605382E-01
    0.14800526848321492526E-01
    0.17400073149003717626E-01
    0.16398659243923002782E-01
    0.16388028648057131192E-01
    0.13747827524887634015E-01
    0.13880367793375949365E-01
    0.17028170971742889739E-01
    0.66359643839452439260E-02
    0.64282828279198511723E-02
    0.43317852276318138949E-02
    0.59176382634135767796E-02
    0.47782821161356358458E-02
    0.46794431517860751724E-02
    0.13947813430057891954E-01
    0.54385610173886857199E-02
    0.82828008618344058089E-02
    0.12419943000863077967E-01
    0.12413496372481807109E-01
    0.52677067338749864259E-02
    0.89431855735608040830E-02
    0.33623954050448533540E-02
    0.38102206830983517682E-02
    0.30830926953579196326E-02
    0.40149193807764247538E-02
    0.43129063229490789688E-02
    0.30789580042579634683E-02
    0.32942839703206413908E-02
    0.56154040428205284283E-02
    0.99163458642946740451E-02
    0.48487482879000544378E-02
    0.12908276437077235294E-01
    0.95565940675872377424E-02
    0.47209106896731294067E-02
    0.63313772473266496238E-02
    0.17292386986428501250E-01
    0.18426326147736031558E-01
    0.14867508639948231325E-01
    0.18515532235287970875E-01
    0.18927876861470162295E-01
    0.16473258342246707708E-01
    0.15421168360011432846E-01
    0.28954024830339726744E-02
    0.27817847034223531708E-02
    0.25174798004304432646E-02
    0.32826798138028100149E-02
    0.31908841867032966544E-02
    0.25632631400125333379E-02
    0.26095646088015052831E-02
    0.18928438465660869794E-01
    0.16688138683401021467E-01
    0.16180071544154930180E-01
    0.18059602215392756702E-01
    0.15863614760620009525E-01
    0.18558639304979581558E-01
    0.16911987162481496860E-01
    0.18693831358725696012E-01
    0.19203949134027838846E-01
    0.16659183289664723782E-01
    0.18552120580978343628E-01
    0.10322272121908773398E-01
    0.17391952504171775962E-01
    0.15378474621515821064E-01
    0.13457005022234409808E-01
    0.12323866505763452980E-01
    0.36837494070285060031E-02
    0.42966681663281717368E-02
    0.37058218077530647241E-02
    0.41469459097200154357E-02
    0.44839986649469164293E-02
    0.16127165705120474759E-01
    0.18890674065264800169E-01
    0.17599295866939600880E-01
    0.17478360586554393674E-01
    0.18833315355223569088E-01
    0.57377920614264544402E-02
    0.89403981985096206420E-02
    0.10035185483546931948E-01
    0.53270233648752170208E-02
    0.71718876518800621367E-02
    0.18365468144555148478E-01
    0.17691010934474633159E-01
    0.18499106209162570480E-01
    0.17182002272413211819E-01
    0.18376138376051016909E-01
    0.52356526232372304144E-02
    0.91683200852835950584E-02
    0.61441312389606071026E-02
    0.61429829813716913325E-02
    0.89745830136363589219E-02
    0.16766897427973791179E-01
    0.18391069285388764176E-01
    0.16074386910640066362E-01
    0.18109556774395213496E-01
    0.16355090505366327858E-01
    0.35981802849846863251E-02
    0.46322158013638167415E-02
    0.39189389695136250466E-02
    0.38926688396701469505E-02
    0.44087338430260948618E-02
    0.33274110965746199996E-02
    0.31476612589829968888E-02
    0.34837634542504696683E-02
    0.31001976452936321794E-02
    0.37060845610113442652E-02
    0.10489686315667401742E-01
    0.16943591445973040649E-01
    0.13221966614019852251E-01
    0.18005627043910340385E-01
    0.17228898512371103313E-01
    0.10206176360524768856E-01
    0.92465315448584609742E-02
    0.14716545455096752965E-01
    0.13481581837738437074E-01
    0.16055827088621122539E-01
    0.18031903301665652695E-01
    0.15363039851497693744E-01
    0.15647204060503155931E-01
    0.18437726507132348036E-01
    0.98716653378690642773E-02
    0.10074089649183503442E-01
    0.10036732017494408298E-01
    0.13197099757962481303E-01
    0.51571374479928268689E-02
    0.10265496784819179085E-01
    0.30526019702254983054E-02
    0.32874907404400644136E-02
    0.39247780789292766035E-02
    0.38948939734590798042E-02
    0.38867465159271243243E-02
    0.43500334780170396912E-02
    0.45244511376787456547E-02
    0.52862152395181946987E-02
    0.68658853076385140124E-02
    0.12309615840510216428E-01
    0.11486265882864402088E-01
    0.14931605132299047289E-01
    0.17874701207482471960E-01
    0.18401860212793781646E-01
    0.17071431081344817793E-01
    0.17683863906799004995E-01
    0.10488583477622713189E-01
    0.51016090982046111146E-02
    0.53257982728405466738E-02
    0.18132063405222609287E-01
    0.19048827033808432563E-01
    0.38163566378343039519E-02
    0.32310039019636024177E-02
    0.29654374242085957888E-02
    0.58833548493875849339E-02
    0.45508304724571528935E-02
    0.43556348464203649418E-02
    0.14269890215671415107E-01
    0.14878816543675680434E-01
    0.60238396423509445871E-02
    0.18586320188654525953E-01
    0.14628694574920430085E-01
    0.13983933609789512761E-01
    0.46940583767475767968E-02
    0.47852066205829142317E-02
    0.34901204054894759653E-02
    0.18485628333040245164E-01
    0.18598912068575827738E-01
    0.17273237471238333390E-01
    0.33990131833732378092E-02
    0.32986142905019155518E-02
    0.26838301731673449430E-02
    0.31701826618867512582E-02
    0.28488638690059497546E-02
    0.25507339455405134143E-02
    0.19048650987051982120E-01
    0.16559960005936787825E-01
    0.17825384755696026262E-01
    0.18476280248996064526E-01
    0.68352068384287751127E-02
    0.18216169749301798497E-01
    0.13713004290818378919E-01
    0.13042413374349210581E-01
    0.45575827472064600263E-02
    0.10310587285278277961E-01
    0.85917054919639988808E-02
    0.50679961458517802653E-02
    0.18001153694225599522E-01
    0.16766088039302701890E-01
    0.12442614950446035521E-01
    0.18125855265688033818E-01
    0.17429892910130039690E-01
    0.41561390889931163622E-02
    0.46637758956601469557E-02
    0.27772502220708749146E-02
    0.29409454718206471530E-02
    0.13608588110387898062E-01
    0.11067113619314243936E-01
    0.23345211918751949780E-02
    0.23711201311724639483E-02
    0.14107234112921245017E-01
    0.48518213427770923857E-02
    0.48596959244732920030E-02
    0.17889805147186191997E-01
    0.37198547872025430373E-02
    0.13071288619636585449E-01
    0.14564608141919586914E-01
    0.39045501186633895657E-02
    0.18373405575849446891E-01
    0.13623623244199110222E-01
    0.17768351949918437249E-01
    0.97183605692866686931E-02
    0.17814938683360901500E-01
    0.37758322652469838987E-02
    0.41885066541057155987E-02
    0.75753545755640212117E-02
    0.15968557769102737637E-01
    0.18733904057788873521E-01
    0.52123791043483663765E-02
    0.19316515712385809445E-01
    0.16561305189875769744E-01
    0.10884089063335395525E-01
    0.46896546639227584818E-02
    0.33803072958311338250E-02
    0.30429841202671541883E-02
    0.48498471362130755533E-02
    0.44127526589254756351E-02
    0.24084352067291515953E-02
    0.23384131613050232815E-02
    0.22339812179290948098E-02
    0.21904570903580229679E-02
    0.43217929704646041583E-02
    0.63750241881888724399E-02
    0.98673882368265856263E-02
    0.11608587583699371895E-01
    0.11591351220283280937E-01
    0.11033521216447508481E-01
    0.86915176281711324646E-02
    0.52901988162109610941E-02
    0.80540862537985188907E-02
    0.64199732823739686510E-02
    0.46441731986460827938E-02
    0.39447426080770724155E-02
    0.33114586083553042631E-02
    0.28078037421532279702E-02
    0.24531346813355652675E-02
    0.25493146145641708278E-02
    0.25957551701411550084E-02
    0.25880178672096606010E-02
    0.25016532732934676671E-02
    0.23920669896402156802E-02
    0.22968902919330933671E-02
    0.32505659817305323361E-02
    0.33443585180674808080E-02
    0.32821055842479412643E-02
    0.31147071482663163042E-02
    0.28380470804612429291E-02
    0.25498051756186624478E-02
    0.23361909757832455790E-02
