# vtk DataFile Version 3.0
LAPLACIEN  2D
ASCII
DATASET UNSTRUCTURED_GRID
 POINTS         391  float
  0.50371505999999999       0.50367786999999997        0.0000000000000000     
  0.29013556000000001       0.29014535000000002        0.0000000000000000     
  0.70165584999999997       0.71206597999999999        0.0000000000000000     
  0.70304188999999995       0.30176619999999998        0.0000000000000000     
  0.30920671999999999       0.71149227999999998        0.0000000000000000     
  0.79044983999999996       0.49884783999999999        0.0000000000000000     
  0.49102621000000002       0.20968644000000000        0.0000000000000000     
  0.49912957000000002       0.77208717000000004        0.0000000000000000     
  0.21724072999999999       0.48989389000000000        0.0000000000000000     
  0.83255933999999998       0.83046598000000005        0.0000000000000000     
  0.16646774000000000       0.17015694000000001        0.0000000000000000     
  0.83054514999999995       0.16736480000000001        0.0000000000000000     
  0.16953130999999999       0.83265739000000005        0.0000000000000000     
  0.42166445000000002       0.36345201999999999        0.0000000000000000     
  0.64462200999999997       0.56347807999999999        0.0000000000000000     
  0.35324633999999999       0.56311191000000005        0.0000000000000000     
  0.65456411000000003       0.84856860999999995        0.0000000000000000     
  0.35141477999999998       0.15563974000000000        0.0000000000000000     
  0.15290967000000000       0.35206625000000003        0.0000000000000000     
  0.82942241000000005       0.34936866000000000        0.0000000000000000     
  0.84390527000000004       0.64441694999999999        0.0000000000000000     
  0.63699174999999997       0.14284276000000001        0.0000000000000000     
  0.15620682999999999       0.64648446999999998        0.0000000000000000     
  0.36426062999999997       0.85756310999999996        0.0000000000000000     
  0.63489340999999999       0.40519052000000000        0.0000000000000000     
  0.52518872999999999       0.65957078000000002        0.0000000000000000     
  0.32158959999999998       0.42298103999999997        0.0000000000000000     
  0.58861710000000000       0.31711036999999997        0.0000000000000000     
  0.42078418000000001       0.69497151999999995        0.0000000000000000     
  0.48608786999999998       0.89334152000000000        0.0000000000000000     
   9.7084320000000002E-002  0.50000000000000000        0.0000000000000000     
  0.90291568000000000       0.50000000000000000        0.0000000000000000     
  0.51392453000000005       0.10668648999999999        0.0000000000000000     
  0.59792566999999996       0.73122754000000001        0.0000000000000000     
  0.74510058999999995       0.41124730999999998        0.0000000000000000     
  0.73212551999999997       0.90191560000000004        0.0000000000000000     
   9.7784830000000003E-002  0.26957329000000002        0.0000000000000000     
  0.26711221000000002        9.8671499999999995E-002   0.0000000000000000     
  0.90191560000000004       0.26787448000000003        0.0000000000000000     
  0.90118569000000004       0.73039821000000005        0.0000000000000000     
  0.73122947000000005        9.8017859999999998E-002   0.0000000000000000     
   9.8084400000000002E-002  0.73212551999999997        0.0000000000000000     
  0.26957329000000002       0.90221516999999996        0.0000000000000000     
  0.39283522999999998       0.25360379000000000        0.0000000000000000     
  0.74480864000000002       0.60495284999999999        0.0000000000000000     
  0.25505132000000003       0.60593640999999998        0.0000000000000000     
  0.52159297999999998       0.40671636000000000        0.0000000000000000     
  0.40768852000000000       0.47699891000000000        0.0000000000000000     
   9.1467049999999994E-002   9.1876959999999994E-002   0.0000000000000000     
  0.90842484999999995       0.90819225000000003        0.0000000000000000     
  0.90820104999999995        9.1566729999999999E-002   0.0000000000000000     
   9.1807449999999999E-002  0.90843574000000005        0.0000000000000000     
  0.27098960000000000       0.20527094000000001        0.0000000000000000     
  0.73457293999999995       0.79835387000000002        0.0000000000000000     
  0.79817773000000003       0.25713470999999999        0.0000000000000000     
  0.20747797000000001       0.72863946000000002        0.0000000000000000     
  0.20175195000000001       0.27583914999999998        0.0000000000000000     
  0.79603889000000005       0.72159035000000005        0.0000000000000000     
  0.71761666000000002       0.19748431999999999        0.0000000000000000     
  0.28462607000000001       0.80251899999999998        0.0000000000000000     
  0.69134598999999997       0.49261972999999998        0.0000000000000000     
  0.44720578999999999       0.58582935999999997        0.0000000000000000     
  0.24242269999999999       0.37228174000000003        0.0000000000000000     
  0.38265623999999998       0.93072131999999996        0.0000000000000000     
  0.60971754000000000       0.91988369000000003        0.0000000000000000     
   7.9163609999999995E-002  0.60979116000000000        0.0000000000000000     
  0.92010649000000000       0.61081183999999999        0.0000000000000000     
  0.61954008999999999        7.1530830000000004E-002   0.0000000000000000     
  0.91882012999999996       0.38917363999999999        0.0000000000000000     
  0.39086346000000000        8.0652249999999995E-002   0.0000000000000000     
   7.9183480000000001E-002  0.38966213000000000        0.0000000000000000     
  0.59114111999999996       0.49294315000000000        0.0000000000000000     
  0.63337980999999999       0.64485914000000000        0.0000000000000000     
  0.50012352000000004       0.29676539000000002        0.0000000000000000     
  0.82552601000000003       0.92753492000000004        0.0000000000000000     
  0.92774772999999999       0.82498556999999995        0.0000000000000000     
   7.1970870000000006E-002  0.17510291000000000        0.0000000000000000     
  0.17422821999999999        7.2635640000000001E-002   0.0000000000000000     
  0.82510813000000005        7.2134840000000006E-002   0.0000000000000000     
  0.92754665000000003       0.17446275999999999        0.0000000000000000     
  0.17501022999999999       0.92789951999999998        0.0000000000000000     
   7.2464680000000004E-002  0.82554053000000005        0.0000000000000000     
  0.30731587999999999       0.50885354999999999        0.0000000000000000     
  0.59033407999999998       0.22171178999999999        0.0000000000000000     
  0.40109191999999999       0.78725542000000004        0.0000000000000000     
  0.35420917000000002       0.63754104000000000        0.0000000000000000     
  0.15983976999999999       0.56665573000000002        0.0000000000000000     
  0.84108459999999996       0.56757886999999996        0.0000000000000000     
  0.83902096000000004       0.43344338999999998        0.0000000000000000     
  0.43230028999999998       0.16004268999999999        0.0000000000000000     
  0.57536027999999995       0.83041363999999995        0.0000000000000000     
  0.15771898000000001       0.42747892999999998        0.0000000000000000     
  0.34021692999999997       0.34221559000000001        0.0000000000000000     
  0.56002271999999997       0.57501117999999996        0.0000000000000000     
  0.65344329000000001       0.78147597999999996        0.0000000000000000     
   0.0000000000000000        0.0000000000000000        0.0000000000000000     
   1.0000000000000000        0.0000000000000000        0.0000000000000000     
   1.0000000000000000        1.0000000000000000        0.0000000000000000     
   0.0000000000000000        1.0000000000000000        0.0000000000000000     
  0.11111111000000000        0.0000000000000000        0.0000000000000000     
  0.22222222000000000        0.0000000000000000        0.0000000000000000     
  0.33333332999999998        0.0000000000000000        0.0000000000000000     
  0.44444444000000000        0.0000000000000000        0.0000000000000000     
  0.55555555999999995        0.0000000000000000        0.0000000000000000     
  0.66666667000000002        0.0000000000000000        0.0000000000000000     
  0.77777777999999997        0.0000000000000000        0.0000000000000000     
  0.88888889000000004        0.0000000000000000        0.0000000000000000     
   1.0000000000000000       0.11111111000000000        0.0000000000000000     
   1.0000000000000000       0.22222222000000000        0.0000000000000000     
   1.0000000000000000       0.33333332999999998        0.0000000000000000     
   1.0000000000000000       0.44444444000000000        0.0000000000000000     
   1.0000000000000000       0.55555555999999995        0.0000000000000000     
   1.0000000000000000       0.66666667000000002        0.0000000000000000     
   1.0000000000000000       0.77777777999999997        0.0000000000000000     
   1.0000000000000000       0.88888889000000004        0.0000000000000000     
  0.88888889000000004        1.0000000000000000        0.0000000000000000     
  0.77777777999999997        1.0000000000000000        0.0000000000000000     
  0.66666667000000002        1.0000000000000000        0.0000000000000000     
  0.55555555999999995        1.0000000000000000        0.0000000000000000     
  0.44444444000000000        1.0000000000000000        0.0000000000000000     
  0.33333332999999998        1.0000000000000000        0.0000000000000000     
  0.22222222000000000        1.0000000000000000        0.0000000000000000     
  0.11111111000000000        1.0000000000000000        0.0000000000000000     
   0.0000000000000000       0.11111111000000000        0.0000000000000000     
   0.0000000000000000       0.22222222000000000        0.0000000000000000     
[...]
 CELL_DATA         354
 SCALARS V float
 LOOKUP_TABLE default
    0.30851310593091096912E-01
    0.40781694944295877880E-01
    0.22326430260842283076E-01
    0.18622475582977034148E-01
    0.33610923409256913963E-01
    0.36268160356019027435E-01
    0.43313792911558693377E-01
    0.39490454801571678312E-01
    0.46979650816227944143E-01
    0.50854701585049268131E-01
    0.58523765665604604580E-01
    0.54337004948542287630E-01
    0.60165582738705661314E-01
    0.59180359632703495587E-01
    0.56935551158141306516E-01
    0.58291940365631671195E-01
    0.54232968509942039437E-01
    0.50198631651960035072E-01
    0.43970681844406826755E-01
    0.46851267561667894745E-01
    0.42662178069713577178E-01
    0.43880541876018544500E-01
    0.47124063347328985774E-01
    0.45330846273307599803E-01
    0.47489853817747194886E-01
    0.46471319057079622794E-01
    0.43924002711071857830E-01
    0.45353876840673545967E-01
    0.41819890424826262898E-01
    0.38793884057158230239E-01
    0.33563910349865222482E-01
    0.36222819942760622891E-01
    0.30994857182524648831E-01
    0.28282510960643741926E-01
    0.24229718796719316304E-01
    0.26042122751056762803E-01
    0.23245457072216028915E-01
    0.23873892961821581438E-01
    0.25943068420496338822E-01
    0.24751218572891031666E-01
    0.26557174374657821492E-01
    0.26676506894499296685E-01
    0.27200327730755119449E-01
    0.26852905997671327326E-01
    0.26793719840766162116E-01
    0.25509543659678453331E-01
    0.24145801091890135848E-01
    0.24718422848060538771E-01
    0.23135368078853156548E-01
    0.21674819225558517727E-01
    0.19677897293761799358E-01
    0.20544440998269512810E-01
    0.31868741064530137219E-01
    0.32402120793277075506E-01
    0.34299960774527668561E-01
    0.33190889575476632822E-01
    0.34492356719518176000E-01
    0.33806882029321229377E-01
    0.32617239716151449902E-01
    0.33220190449394330912E-01
    0.31448794313362282704E-01
    0.29591893461154018807E-01
    0.26406332097922299851E-01
    0.28029402493782627770E-01
    0.24716751574406427283E-01
    0.22791839008242747999E-01
    0.19991111463909243262E-01
    0.21232341417305809761E-01
    0.70506917927720180739E-01
    0.63446832040927103602E-01
    0.59159728871768707537E-01
    0.66782785219802381915E-01
    0.61188226577899698655E-01
    0.61160025236119595904E-01
    0.54716383888142129666E-01
    0.51451162838874422989E-01
    0.53275314282937843990E-01
    0.58824769288881889606E-01
    0.42557323345124922764E-01
    0.45878092403187110959E-01
    0.38695259893368819104E-01
    0.40884643815664985234E-01
    0.46120862287944659752E-01
    0.39848498870424887974E-01
    0.68635672961817939530E-01
    0.79860180772740776978E-01
    0.87697187444615909424E-01
    0.72592341076788663434E-01
    0.70347792459086025407E-01
    0.75330318716038041638E-01
    0.83586950918251967657E-01
    0.40017247501212743765E-01
    0.39020487743274538672E-01
    0.34945472858223122770E-01
    0.34191742785862073994E-01
    0.36502839488308888583E-01
    0.41061794160181033786E-01
    0.51459076636082234923E-01
    0.61398535386974109618E-01
    0.53533832783140680722E-01
    0.59899473027122021596E-01
    0.51205794056298208072E-01
    0.56119948188308829695E-01
    0.72962685311033906310E-01
    0.73613036811249976665E-01
    0.81471184188747686195E-01
    0.81419514485327026954E-01
    0.71551062182756711150E-01
    0.43184787539614341578E-01
    0.40756801979998931451E-01
    0.34328180964849241974E-01
    0.40472461465777140321E-01
    0.36808284499254509403E-01
    0.36418415814132791553E-01
    0.50221176073575443666E-01
    0.39507207722719109300E-01
    0.42760646646837228990E-01
    0.47431854129449238511E-01
    0.47439239696484516995E-01
    0.40124758365393836668E-01
    0.42723985011622216124E-01
    0.30020959209530677370E-01
    0.32703064090433435485E-01
    0.27827081180410516426E-01
    0.33173821754071811108E-01
    0.34789734573115072003E-01
    0.28186384296230562740E-01
    0.29628415102173372153E-01
    0.40237338384552956416E-01
    0.45012111776250952888E-01
    0.38115162474858542418E-01
    0.47237514796007150364E-01
    0.44600648817456456374E-01
    0.38203062676551532983E-01
    0.40812956012362178182E-01
    0.54908380670102507892E-01
    0.59128199475676747332E-01
    0.51015139845083518066E-01
    0.60728210455854358951E-01
    0.63680603443982547462E-01
    0.53924730143838278673E-01
    0.51782581466317173513E-01
    0.26890534120329399881E-01
    0.26079833320710184286E-01
    0.23386030990295316595E-01
    0.29112103407784639675E-01
    0.28663044762238930330E-01
    0.24100401464080635494E-01
    0.24551773720894662367E-01
    0.63365426882709435796E-01
    0.70487402198451815094E-01
    0.74958097201142548371E-01
    0.66446128300253370913E-01
    0.77828373421085741968E-01
    0.65753331024102343316E-01
    0.54584877614848169303E-01
    0.60826628791046624678E-01
    0.62782692428493838688E-01
    0.54011547355922055746E-01
    0.58087421196827138115E-01
    0.45738692754639910520E-01
    0.54868534123271396619E-01
    0.51825475481798749522E-01
    0.50213702895075686128E-01
    0.47166956214166021188E-01
    0.31160320439442730500E-01
    0.34004749761724156754E-01
    0.31113069129882570119E-01
    0.33750220844141219645E-01
    0.35343098825582598688E-01
    0.53144782250466017504E-01
    0.62604313120609531018E-01
    0.55731779151825713847E-01
    0.57162287313818664625E-01
    0.62463269962006726099E-01
    0.40417916569294096152E-01
    0.44519584452686160325E-01
    0.45875988794988345476E-01
    0.39331242576494049312E-01
    0.42038483470929151331E-01
    0.64332769725183786003E-01
    0.56460687140004545137E-01
    0.62687101057085983791E-01
    0.54824964149314051043E-01
    0.58123407157598672157E-01
    0.38269857166936475934E-01
    0.45493637618990487304E-01
    0.40627866610956110682E-01
    0.40862156606768104683E-01
    0.44724671190308595836E-01
    0.70280304422376094209E-01
    0.66348630805575473102E-01
    0.71860286124289907139E-01
    0.66946416735930935893E-01
    0.77235926808925423059E-01
    0.30596528724737368649E-01
    0.36733032982192423410E-01
    0.32987792238980358228E-01
    0.32130074515156495374E-01
    0.35310735739514473308E-01
    0.30351388527375375986E-01
    0.28172655504494895085E-01
    0.30696837098857863990E-01
    0.28400159629511961129E-01
    0.32493823734920740387E-01
    0.86768333456062052278E-01
    0.73172820274685579367E-01
    0.79863778492781908880E-01
    0.70994719472947304117E-01
    0.73443899272886040142E-01
    0.45561379695350824603E-01
    0.45081186755271118738E-01
    0.50751032145660270045E-01
    0.49253937573706683961E-01
    0.52819361831259542539E-01
    0.59132867074941433683E-01
    0.53200561129564200025E-01
    0.53236661921627188854E-01
    0.59202739623439540328E-01
    0.87334935860584078648E-01
    0.91145117620676702197E-01
    0.91531776500712799804E-01
    0.47684589265409867143E-01
    0.38873397158104963656E-01
    0.43815864806964054112E-01
    0.28176724917845116097E-01
    0.29528791580609201756E-01
    0.33017274976471312764E-01
    0.32553821151189307748E-01
    0.32898731521670165900E-01
    0.35703511048423515473E-01
    0.36270879028881569672E-01
    0.38572814461584475909E-01
    0.43138449075543233713E-01
    0.48320077727080669450E-01
    0.47226545289827989715E-01
    0.51607947856974679957E-01
    0.64756934819282602200E-01
    0.61010525392033471137E-01
    0.76025225742125390749E-01
    0.66770870229489187597E-01
    0.45915594497313957922E-01
    0.38337255504590696253E-01
    0.39739728802651745621E-01
    0.66089076594860088343E-01
    0.60984755386905425967E-01
    0.32038887939400864657E-01
    0.28891114199266806906E-01
    0.27381348290860044181E-01
    0.42420846711760551440E-01
    0.37087379506436313203E-01
    0.36589425874647051040E-01
    0.50030419939982168076E-01
    0.51896600233519600553E-01
    0.43024816505163557268E-01
    0.58376538956990381424E-01
    0.51199411106255074411E-01
    0.50061529592000365840E-01
    0.36455825345016110162E-01
    0.37054982105118497437E-01
    0.30959703882471562714E-01
    0.65585906018345740964E-01
    0.62007465098762579170E-01
    0.55361227793968875721E-01
    0.29751765597299036081E-01
    0.29157161573828922763E-01
    0.25101255228358446137E-01
    0.28420724950806282305E-01
    0.26283312300006522744E-01
    0.23992896549226379321E-01
    0.59633731266914069558E-01
    0.76502054442197625628E-01
    0.67654524422425157959E-01
    0.64753364321566281303E-01
    0.43960695788103361370E-01
    0.57047172085624819893E-01
    0.50044141048667091509E-01
    0.48804332866960307979E-01
    0.36314750301024621704E-01
    0.45858967645093090537E-01
    0.42864255798516208429E-01
    0.38956601043773089743E-01
    0.69541564487739404576E-01
    0.73367842862994414599E-01
    0.83046866128764537662E-01
    0.57268315356515386849E-01
    0.55258954063389584266E-01
    0.34982050660918598273E-01
    0.37076651183562570058E-01
    0.25636204831771241403E-01
    0.26799813744435695834E-01
    0.48735180040729922379E-01
    0.47076340701452522308E-01
    0.21797771196320606113E-01
    0.22165541514496858722E-01
    0.49553359000670885171E-01
    0.36926070381390653508E-01
    0.36694499103498590120E-01
    0.67702435853107645336E-01
    0.31647596017841776728E-01
    0.48663834850159029544E-01
    0.78426758721242315064E-01
    0.33403510871739740262E-01
    0.66596474642359293483E-01
    0.48393459366826069301E-01
    0.55725271737216086620E-01
    0.45335309892292140199E-01
    0.55868837537039112151E-01
    0.31730191645733311911E-01
    0.33946117069164213897E-01
    0.43713776357063242883E-01
    0.52901662416930776700E-01
    0.61586097298523920229E-01
    0.38772072689170676563E-01
    0.62637522657812402804E-01
    0.53676542089814295589E-01
    0.87609532551925189958E-01
    0.36423213775497974287E-01
    0.30330398908666247881E-01
    0.28811947970496850496E-01
    0.39502505493531188396E-01
    0.38380031372826757530E-01
    0.21814479157364088241E-01
    0.20952279186790139648E-01
    0.17672396544702331789E-01
    0.17947412855767157919E-01
    0.36350542403904929911E-01
    0.43084580640114944483E-01
    0.49504116975030813819E-01
    0.54377804975514199004E-01
    0.54952799287682548013E-01
    0.51964935658248168071E-01
    0.45990176635599067101E-01
    0.41749379878618347872E-01
    0.43609416079953576550E-01
    0.42741531462363299698E-01
    0.39903474368968905317E-01
    0.35494612923856569409E-01
    0.30722656898302072581E-01
    0.25985272835832583932E-01
    0.22785669568055319512E-01
    0.24281936993251675844E-01
    0.24883051856689375470E-01
    0.24798437081636325735E-01
    0.23626053000479527166E-01
    0.22045717663776345785E-01
    0.19878389143053981636E-01
    0.30683754797688964078E-01
    0.31723616536791496290E-01
    0.31225209791907758416E-01
    0.29693346429176977613E-01
    0.27086537383872524853E-01
    0.24098641440991237089E-01
    0.20898212047225729615E-01
