# vtk DataFile Version 3.0
LAPLACIEN  2D
ASCII
DATASET UNSTRUCTURED_GRID
 POINTS         391  float
  0.50371505999999999       0.50367786999999997        0.0000000000000000     
  0.29013556000000001       0.29014535000000002        0.0000000000000000     
  0.70165584999999997       0.71206597999999999        0.0000000000000000     
  0.70304188999999995       0.30176619999999998        0.0000000000000000     
  0.30920671999999999       0.71149227999999998        0.0000000000000000     
  0.79044983999999996       0.49884783999999999        0.0000000000000000     
  0.49102621000000002       0.20968644000000000        0.0000000000000000     
  0.49912957000000002       0.77208717000000004        0.0000000000000000     
  0.21724072999999999       0.48989389000000000        0.0000000000000000     
  0.83255933999999998       0.83046598000000005        0.0000000000000000     
  0.16646774000000000       0.17015694000000001        0.0000000000000000     
  0.83054514999999995       0.16736480000000001        0.0000000000000000     
  0.16953130999999999       0.83265739000000005        0.0000000000000000     
  0.42166445000000002       0.36345201999999999        0.0000000000000000     
  0.64462200999999997       0.56347807999999999        0.0000000000000000     
  0.35324633999999999       0.56311191000000005        0.0000000000000000     
  0.65456411000000003       0.84856860999999995        0.0000000000000000     
  0.35141477999999998       0.15563974000000000        0.0000000000000000     
  0.15290967000000000       0.35206625000000003        0.0000000000000000     
  0.82942241000000005       0.34936866000000000        0.0000000000000000     
  0.84390527000000004       0.64441694999999999        0.0000000000000000     
  0.63699174999999997       0.14284276000000001        0.0000000000000000     
  0.15620682999999999       0.64648446999999998        0.0000000000000000     
  0.36426062999999997       0.85756310999999996        0.0000000000000000     
  0.63489340999999999       0.40519052000000000        0.0000000000000000     
  0.52518872999999999       0.65957078000000002        0.0000000000000000     
  0.32158959999999998       0.42298103999999997        0.0000000000000000     
  0.58861710000000000       0.31711036999999997        0.0000000000000000     
  0.42078418000000001       0.69497151999999995        0.0000000000000000     
  0.48608786999999998       0.89334152000000000        0.0000000000000000     
   9.7084320000000002E-002  0.50000000000000000        0.0000000000000000     
  0.90291568000000000       0.50000000000000000        0.0000000000000000     
  0.51392453000000005       0.10668648999999999        0.0000000000000000     
  0.59792566999999996       0.73122754000000001        0.0000000000000000     
  0.74510058999999995       0.41124730999999998        0.0000000000000000     
  0.73212551999999997       0.90191560000000004        0.0000000000000000     
   9.7784830000000003E-002  0.26957329000000002        0.0000000000000000     
  0.26711221000000002        9.8671499999999995E-002   0.0000000000000000     
  0.90191560000000004       0.26787448000000003        0.0000000000000000     
  0.90118569000000004       0.73039821000000005        0.0000000000000000     
  0.73122947000000005        9.8017859999999998E-002   0.0000000000000000     
   9.8084400000000002E-002  0.73212551999999997        0.0000000000000000     
  0.26957329000000002       0.90221516999999996        0.0000000000000000     
  0.39283522999999998       0.25360379000000000        0.0000000000000000     
  0.74480864000000002       0.60495284999999999        0.0000000000000000     
  0.25505132000000003       0.60593640999999998        0.0000000000000000     
  0.52159297999999998       0.40671636000000000        0.0000000000000000     
  0.40768852000000000       0.47699891000000000        0.0000000000000000     
   9.1467049999999994E-002   9.1876959999999994E-002   0.0000000000000000     
  0.90842484999999995       0.90819225000000003        0.0000000000000000     
  0.90820104999999995        9.1566729999999999E-002   0.0000000000000000     
   9.1807449999999999E-002  0.90843574000000005        0.0000000000000000     
  0.27098960000000000       0.20527094000000001        0.0000000000000000     
  0.73457293999999995       0.79835387000000002        0.0000000000000000     
  0.79817773000000003       0.25713470999999999        0.0000000000000000     
  0.20747797000000001       0.72863946000000002        0.0000000000000000     
  0.20175195000000001       0.27583914999999998        0.0000000000000000     
  0.79603889000000005       0.72159035000000005        0.0000000000000000     
  0.71761666000000002       0.19748431999999999        0.0000000000000000     
  0.28462607000000001       0.80251899999999998        0.0000000000000000     
  0.69134598999999997       0.49261972999999998        0.0000000000000000     
  0.44720578999999999       0.58582935999999997        0.0000000000000000     
  0.24242269999999999       0.37228174000000003        0.0000000000000000     
  0.38265623999999998       0.93072131999999996        0.0000000000000000     
  0.60971754000000000       0.91988369000000003        0.0000000000000000     
   7.9163609999999995E-002  0.60979116000000000        0.0000000000000000     
  0.92010649000000000       0.61081183999999999        0.0000000000000000     
  0.61954008999999999        7.1530830000000004E-002   0.0000000000000000     
  0.91882012999999996       0.38917363999999999        0.0000000000000000     
  0.39086346000000000        8.0652249999999995E-002   0.0000000000000000     
   7.9183480000000001E-002  0.38966213000000000        0.0000000000000000     
  0.59114111999999996       0.49294315000000000        0.0000000000000000     
  0.63337980999999999       0.64485914000000000        0.0000000000000000     
  0.50012352000000004       0.29676539000000002        0.0000000000000000     
  0.82552601000000003       0.92753492000000004        0.0000000000000000     
  0.92774772999999999       0.82498556999999995        0.0000000000000000     
   7.1970870000000006E-002  0.17510291000000000        0.0000000000000000     
  0.17422821999999999        7.2635640000000001E-002   0.0000000000000000     
  0.82510813000000005        7.2134840000000006E-002   0.0000000000000000     
  0.92754665000000003       0.17446275999999999        0.0000000000000000     
  0.17501022999999999       0.92789951999999998        0.0000000000000000     
   7.2464680000000004E-002  0.82554053000000005        0.0000000000000000     
  0.30731587999999999       0.50885354999999999        0.0000000000000000     
  0.59033407999999998       0.22171178999999999        0.0000000000000000     
  0.40109191999999999       0.78725542000000004        0.0000000000000000     
  0.35420917000000002       0.63754104000000000        0.0000000000000000     
  0.15983976999999999       0.56665573000000002        0.0000000000000000     
  0.84108459999999996       0.56757886999999996        0.0000000000000000     
  0.83902096000000004       0.43344338999999998        0.0000000000000000     
  0.43230028999999998       0.16004268999999999        0.0000000000000000     
  0.57536027999999995       0.83041363999999995        0.0000000000000000     
  0.15771898000000001       0.42747892999999998        0.0000000000000000     
  0.34021692999999997       0.34221559000000001        0.0000000000000000     
  0.56002271999999997       0.57501117999999996        0.0000000000000000     
  0.65344329000000001       0.78147597999999996        0.0000000000000000     
   0.0000000000000000        0.0000000000000000        0.0000000000000000     
   1.0000000000000000        0.0000000000000000        0.0000000000000000     
   1.0000000000000000        1.0000000000000000        0.0000000000000000     
   0.0000000000000000        1.0000000000000000        0.0000000000000000     
  0.11111111000000000        0.0000000000000000        0.0000000000000000     
  0.22222222000000000        0.0000000000000000        0.0000000000000000     
  0.33333332999999998        0.0000000000000000        0.0000000000000000     
  0.44444444000000000        0.0000000000000000        0.0000000000000000     
  0.55555555999999995        0.0000000000000000        0.0000000000000000     
  0.66666667000000002        0.0000000000000000        0.0000000000000000     
  0.77777777999999997        0.0000000000000000        0.0000000000000000     
  0.88888889000000004        0.0000000000000000        0.0000000000000000     
   1.0000000000000000       0.11111111000000000        0.0000000000000000     
   1.0000000000000000       0.22222222000000000        0.0000000000000000     
   1.0000000000000000       0.33333332999999998        0.0000000000000000     
   1.0000000000000000       0.44444444000000000        0.0000000000000000     
   1.0000000000000000       0.55555555999999995        0.0000000000000000     
   1.0000000000000000       0.66666667000000002        0.0000000000000000     
   1.0000000000000000       0.77777777999999997        0.0000000000000000     
   1.0000000000000000       0.88888889000000004        0.0000000000000000     
  0.88888889000000004        1.0000000000000000        0.0000000000000000     
  0.77777777999999997        1.0000000000000000        0.0000000000000000     
  0.66666667000000002        1.0000000000000000        0.0000000000000000     
  0.55555555999999995        1.0000000000000000        0.0000000000000000     
  0.44444444000000000        1.0000000000000000        0.0000000000000000     
  0.33333332999999998        1.0000000000000000        0.0000000000000000     
  0.22222222000000000        1.0000000000000000        0.0000000000000000     
  0.11111111000000000        1.0000000000000000        0.0000000000000000     
   0.0000000000000000       0.11111111000000000        0.0000000000000000     
   0.0000000000000000       0.22222222000000000        0.0000000000000000     
[...]
 CELL_DATA         354
 SCALARS V float
 LOOKUP_TABLE default
    0.30851384778502514983E-01
    0.40781794075750991968E-01
    0.22326485731641258076E-01
    0.18622523603493965072E-01
    0.33610934925715638122E-01
    0.36268194600893671753E-01
    0.43313891696539819076E-01
    0.39490514737430051917E-01
    0.46979753068093633994E-01
    0.50854791404970428603E-01
    0.58523912592818486123E-01
    0.54337136630771207257E-01
    0.60165688886584939299E-01
    0.59180482436535779278E-01
    0.56935686937264112784E-01
    0.58292077964956195979E-01
    0.54233087967904151927E-01
    0.50198713519854408494E-01
    0.43970711241079769860E-01
    0.46851322483254617679E-01
    0.42662243279757552927E-01
    0.43880610930549283910E-01
    0.47124164464735836255E-01
    0.45330934859595502229E-01
    0.47489994162323398430E-01
    0.46471446728503174040E-01
    0.43924096582866563321E-01
    0.45353973522118402883E-01
    0.41819992658411561659E-01
    0.38793969544225648249E-01
    0.33563982423636153085E-01
    0.36222886813474734768E-01
    0.30994931509599393804E-01
    0.28282559982137002452E-01
    0.24229733638565918719E-01
    0.26042151280418864706E-01
    0.23245500079245407649E-01
    0.23873934298413633515E-01
    0.25943133226507004291E-01
    0.24751272720795598065E-01
    0.26557260376982066291E-01
    0.26676584936542156040E-01
    0.27200416183018622657E-01
    0.26852982644475661272E-01
    0.26793793876639222795E-01
    0.25509608938994447758E-01
    0.24145871741906778374E-01
    0.24718493614034969807E-01
    0.23135428739536983284E-01
    0.21674866028695113224E-01
    0.19677927413225923536E-01
    0.20544474024871681173E-01
    0.31868804134399950079E-01
    0.32402177769605411406E-01
    0.34300041416950727280E-01
    0.33190962208731814020E-01
    0.34492464514573009660E-01
    0.33806979301911600777E-01
    0.32617319065194626260E-01
    0.33220268268671283851E-01
    0.31448877933695211506E-01
    0.29591964928644749755E-01
    0.26406404369902231749E-01
    0.28029467867652060192E-01
    0.24716814740332996442E-01
    0.22791882856021905557E-01
    0.19991131913474173565E-01
    0.21232370047812140074E-01
    0.70506934252510103378E-01
    0.63446810234626532798E-01
    0.59159638266227512760E-01
    0.66782785934418928409E-01
    0.61188152137385654061E-01
    0.61160065657517997950E-01
    0.54716392048830927997E-01
    0.51451118444912041783E-01
    0.53275254893527468347E-01
    0.58824734842537008961E-01
    0.42557360103126475048E-01
    0.45878133208203816795E-01
    0.38695256529737778739E-01
    0.40884661911758019004E-01
    0.46120856222521960932E-01
    0.39848559624830061365E-01
    0.68635643485948943932E-01
    0.79860006047050735578E-01
    0.87696612600513784708E-01
    0.72592313099713937086E-01
    0.70347749552816279950E-01
    0.75330328731202877979E-01
    0.83586650807173742961E-01
    0.40017193238828567547E-01
    0.39020462932845736970E-01
    0.34945466892199586462E-01
    0.34191746349333279609E-01
    0.36502834902662165129E-01
    0.41061729398893152820E-01
    0.51459044223486127834E-01
    0.61398537261386221253E-01
    0.53533833081034140622E-01
    0.59899422678135458287E-01
    0.51205851782131300842E-01
    0.56119908231080178895E-01
    0.72962591598613416033E-01
    0.73612930462538667120E-01
    0.81471107256344446612E-01
    0.81419457918969262433E-01
    0.71551059492157911834E-01
    0.43184775657392954207E-01
    0.40756816663861307470E-01
    0.34328130470702170052E-01
    0.40472471730588183148E-01
    0.36808261250630337769E-01
    0.36418424376287866773E-01
    0.50221111475383287126E-01
    0.39507192439796744166E-01
    0.42760642903998842546E-01
    0.47431870020670688359E-01
    0.47439188790083845759E-01
    0.40124820776473557604E-01
    0.42724016420311136666E-01
    0.30020971888909689373E-01
    0.32703082934425614647E-01
    0.27827095294757311916E-01
    0.33173790921189535985E-01
    0.34789712919743399910E-01
    0.28186436058378106645E-01
    0.29628454363351042211E-01
    0.40237364917928834795E-01
    0.45012128336608558943E-01
    0.38115180636762321931E-01
    0.47237463861943308763E-01
    0.44600615226703457794E-01
    0.38203119326465181937E-01
    0.40813006945635547928E-01
    0.54908374574613172392E-01
    0.59128206900604204921E-01
    0.51015150912639389835E-01
    0.60728129909817213372E-01
    0.63680532896615918426E-01
    0.53924793199940070088E-01
    0.51782660314804426771E-01
    0.26890556440733928006E-01
    0.26079859230536926729E-01
    0.23386045386433282345E-01
    0.29112083549996798509E-01
    0.28663031660189412092E-01
    0.24100442833412769050E-01
    0.24551815951585523323E-01
    0.63365430757742854939E-01
    0.70487385635207039369E-01
    0.74958002114700592045E-01
    0.66446088056931959520E-01
    0.77828271102160700989E-01
    0.65753355795081458446E-01
    0.54584783760655515572E-01
    0.60826601134091072554E-01
    0.62782713944032453313E-01
    0.54011479115496731362E-01
    0.58087381411759737848E-01
    0.45738610595723420971E-01
    0.54868601219657663071E-01
    0.51825502517896901433E-01
    0.50213680870562951708E-01
    0.47166935059266223984E-01
    0.31160268330456666885E-01
    0.34004725419533650410E-01
    0.31113005475240700093E-01
    0.33750232668124643953E-01
    0.35343100462461071731E-01
    0.53144677002033950675E-01
    0.62604294942474783547E-01
    0.55731748769880552763E-01
    0.57162186770880224485E-01
    0.62463256668331558485E-01
    0.40417856131514773299E-01
    0.44519591707319366991E-01
    0.45876026007361202230E-01
    0.39331176439911887111E-01
    0.42038485336913788970E-01
    0.64332786990032336805E-01
    0.56460617133571713855E-01
    0.62687077698907675560E-01
    0.54824892313210749073E-01
    0.58123414231307707345E-01
    0.38269791570165898054E-01
    0.45493659914654621668E-01
    0.40627867430031959495E-01
    0.40862098656921863604E-01
    0.44724682776711759125E-01
    0.70280300222674299548E-01
    0.66348525711553904549E-01
    0.71860266992523805230E-01
    0.66946426102571829353E-01
    0.77235812579126816857E-01
    0.30596479627570043885E-01
    0.36733064614248148172E-01
    0.32987807767725106645E-01
    0.32130027287029967742E-01
    0.35310747273428241821E-01
    0.30351444538079398738E-01
    0.28172625538449395932E-01
    0.30696861674943010101E-01
    0.28400181038250992688E-01
    0.32493857903697423439E-01
    0.86767965180103948097E-01
    0.73172818739133463350E-01
    0.79863638471190198653E-01
    0.70994672588282445314E-01
    0.73443860826771900641E-01
    0.45561363652775375976E-01
    0.45081200909263888232E-01
    0.50751035363097080078E-01
    0.49253924889012312693E-01
    0.52819346357098784228E-01
    0.59132888751171994168E-01
    0.53200487363542367514E-01
    0.53236651919332765581E-01
    0.59202703064108866404E-01
    0.87334523105822348121E-01
    0.91144468927853272699E-01
    0.91531001061842337529E-01
    0.47684598833526381512E-01
    0.38873400057239139438E-01
    0.43815854993736774725E-01
    0.28176781316874694588E-01
    0.29528779501699395360E-01
    0.33017240789839238935E-01
    0.32553785295683736190E-01
    0.32898718013732120014E-01
    0.35703482930409237428E-01
    0.36270877806173260072E-01
    0.38572747122712830459E-01
    0.43138429298447800164E-01
    0.48320034650992889358E-01
    0.47226538265566976593E-01
    0.51607845972767865672E-01
    0.64757020858866129465E-01
    0.61010473400054714144E-01
    0.76025015518472516263E-01
    0.66770784939057886698E-01
    0.45915589723469513173E-01
    0.38337256481431006283E-01
    0.39739768229545030520E-01
    0.66089056994888609187E-01
    0.60984806921280984571E-01
    0.32038861464668035028E-01
    0.28891079618972591997E-01
    0.27381389276034780872E-01
    0.42420819079715149647E-01
    0.37087352640953294425E-01
    0.36589467609692991057E-01
    0.50030369721159630159E-01
    0.51896512007910400310E-01
    0.43024878991071095757E-01
    0.58376442188597818528E-01
    0.51199395585624037086E-01
    0.50061590072533135309E-01
    0.36455793713834894199E-01
    0.37054929489951718424E-01
    0.30959755962594519979E-01
    0.65585822217812367319E-01
    0.62007385692819050327E-01
    0.55361300570462984583E-01
    0.29751744383579199760E-01
    0.29157127353475170706E-01
    0.25101299077582187730E-01
    0.28420714476385004060E-01
    0.26283295227167678687E-01
    0.23992937004392284051E-01
    0.59633754295834839887E-01
    0.76501871250019379267E-01
    0.67654519814279417966E-01
    0.64753408638801676633E-01
    0.43960728847154878496E-01
    0.57047087040657293300E-01
    0.50044117722674662241E-01
    0.48804374253449987753E-01
    0.36314776852055641321E-01
    0.45858864586183531453E-01
    0.42864207204485457736E-01
    0.38956650594885990080E-01
    0.69541505161206912389E-01
    0.73367850888695060330E-01
    0.83046613959807044636E-01
    0.57268306643780679532E-01
    0.55258998025487678085E-01
    0.34982056992965950004E-01
    0.37076650785394828225E-01
    0.25636211794158286770E-01
    0.26799814221200556064E-01
    0.48735168079396463947E-01
    0.47076339354089558054E-01
    0.21797775629416239751E-01
    0.22165545534370986736E-01
    0.49553310984924922589E-01
    0.36926057772509332522E-01
    0.36694479043147459896E-01
    0.67702387349192927335E-01
    0.31647580876771490288E-01
    0.48663836659518476535E-01
    0.78426791633570011597E-01
    0.33403550743345694629E-01
    0.66596467614420978842E-01
    0.48393486138851207756E-01
    0.55725231858323759360E-01
    0.45335393473005247689E-01
    0.55868778207381723788E-01
    0.31730153106975168831E-01
    0.33946090286502902944E-01
    0.43713742576003078444E-01
    0.52901594151507816410E-01
    0.61586006217467376134E-01
    0.38772025506322312094E-01
    0.62637496552878924039E-01
    0.53676479931333481721E-01
    0.87609191665209307232E-01
    0.36423216212811984627E-01
    0.30330435187133790442E-01
    0.28812048165229975361E-01
    0.39502576170951611556E-01
    0.38380148504119637742E-01
    0.21814511450935953479E-01
    0.20952348203786112096E-01
    0.17672446200075186962E-01
    0.17947450853105638424E-01
    0.36350602875430917948E-01
    0.43084714328747726608E-01
    0.49504270467023520075E-01
    0.54377985259171118804E-01
    0.54952999522089956974E-01
    0.51965118866948663279E-01
    0.45990282577462862634E-01
    0.41749514465940384955E-01
    0.43609581383135136157E-01
    0.42741689609531133276E-01
    0.39903611808693770224E-01
    0.35494722819139748471E-01
    0.30722751567836159570E-01
    0.25985320258954835992E-01
    0.22785744376915391396E-01
    0.24282034333973540746E-01
    0.24883151720103260929E-01
    0.24798540701066400238E-01
    0.23626144126821495978E-01
    0.22045802429258055943E-01
    0.19878447025475698418E-01
    0.30683860226335821914E-01
    0.31723740454738622030E-01
    0.31225329817564539958E-01
    0.29693456228045908563E-01
    0.27086630686989920241E-01
    0.24098727131478495100E-01
    0.20898261433242835278E-01
