# vtk DataFile Version 3.0
LAPLACIEN  2D
ASCII
DATASET UNSTRUCTURED_GRID
 POINTS         391  float
  0.50371505999999999       0.50367786999999997        0.0000000000000000     
  0.29013556000000001       0.29014535000000002        0.0000000000000000     
  0.70165584999999997       0.71206597999999999        0.0000000000000000     
  0.70304188999999995       0.30176619999999998        0.0000000000000000     
  0.30920671999999999       0.71149227999999998        0.0000000000000000     
  0.79044983999999996       0.49884783999999999        0.0000000000000000     
  0.49102621000000002       0.20968644000000000        0.0000000000000000     
  0.49912957000000002       0.77208717000000004        0.0000000000000000     
  0.21724072999999999       0.48989389000000000        0.0000000000000000     
  0.83255933999999998       0.83046598000000005        0.0000000000000000     
  0.16646774000000000       0.17015694000000001        0.0000000000000000     
  0.83054514999999995       0.16736480000000001        0.0000000000000000     
  0.16953130999999999       0.83265739000000005        0.0000000000000000     
  0.42166445000000002       0.36345201999999999        0.0000000000000000     
  0.64462200999999997       0.56347807999999999        0.0000000000000000     
  0.35324633999999999       0.56311191000000005        0.0000000000000000     
  0.65456411000000003       0.84856860999999995        0.0000000000000000     
  0.35141477999999998       0.15563974000000000        0.0000000000000000     
  0.15290967000000000       0.35206625000000003        0.0000000000000000     
  0.82942241000000005       0.34936866000000000        0.0000000000000000     
  0.84390527000000004       0.64441694999999999        0.0000000000000000     
  0.63699174999999997       0.14284276000000001        0.0000000000000000     
  0.15620682999999999       0.64648446999999998        0.0000000000000000     
  0.36426062999999997       0.85756310999999996        0.0000000000000000     
  0.63489340999999999       0.40519052000000000        0.0000000000000000     
  0.52518872999999999       0.65957078000000002        0.0000000000000000     
  0.32158959999999998       0.42298103999999997        0.0000000000000000     
  0.58861710000000000       0.31711036999999997        0.0000000000000000     
  0.42078418000000001       0.69497151999999995        0.0000000000000000     
  0.48608786999999998       0.89334152000000000        0.0000000000000000     
   9.7084320000000002E-002  0.50000000000000000        0.0000000000000000     
  0.90291568000000000       0.50000000000000000        0.0000000000000000     
  0.51392453000000005       0.10668648999999999        0.0000000000000000     
  0.59792566999999996       0.73122754000000001        0.0000000000000000     
  0.74510058999999995       0.41124730999999998        0.0000000000000000     
  0.73212551999999997       0.90191560000000004        0.0000000000000000     
   9.7784830000000003E-002  0.26957329000000002        0.0000000000000000     
  0.26711221000000002        9.8671499999999995E-002   0.0000000000000000     
  0.90191560000000004       0.26787448000000003        0.0000000000000000     
  0.90118569000000004       0.73039821000000005        0.0000000000000000     
  0.73122947000000005        9.8017859999999998E-002   0.0000000000000000     
   9.8084400000000002E-002  0.73212551999999997        0.0000000000000000     
  0.26957329000000002       0.90221516999999996        0.0000000000000000     
  0.39283522999999998       0.25360379000000000        0.0000000000000000     
  0.74480864000000002       0.60495284999999999        0.0000000000000000     
  0.25505132000000003       0.60593640999999998        0.0000000000000000     
  0.52159297999999998       0.40671636000000000        0.0000000000000000     
  0.40768852000000000       0.47699891000000000        0.0000000000000000     
   9.1467049999999994E-002   9.1876959999999994E-002   0.0000000000000000     
  0.90842484999999995       0.90819225000000003        0.0000000000000000     
  0.90820104999999995        9.1566729999999999E-002   0.0000000000000000     
   9.1807449999999999E-002  0.90843574000000005        0.0000000000000000     
  0.27098960000000000       0.20527094000000001        0.0000000000000000     
  0.73457293999999995       0.79835387000000002        0.0000000000000000     
  0.79817773000000003       0.25713470999999999        0.0000000000000000     
  0.20747797000000001       0.72863946000000002        0.0000000000000000     
  0.20175195000000001       0.27583914999999998        0.0000000000000000     
  0.79603889000000005       0.72159035000000005        0.0000000000000000     
  0.71761666000000002       0.19748431999999999        0.0000000000000000     
  0.28462607000000001       0.80251899999999998        0.0000000000000000     
  0.69134598999999997       0.49261972999999998        0.0000000000000000     
  0.44720578999999999       0.58582935999999997        0.0000000000000000     
  0.24242269999999999       0.37228174000000003        0.0000000000000000     
  0.38265623999999998       0.93072131999999996        0.0000000000000000     
  0.60971754000000000       0.91988369000000003        0.0000000000000000     
   7.9163609999999995E-002  0.60979116000000000        0.0000000000000000     
  0.92010649000000000       0.61081183999999999        0.0000000000000000     
  0.61954008999999999        7.1530830000000004E-002   0.0000000000000000     
  0.91882012999999996       0.38917363999999999        0.0000000000000000     
  0.39086346000000000        8.0652249999999995E-002   0.0000000000000000     
   7.9183480000000001E-002  0.38966213000000000        0.0000000000000000     
  0.59114111999999996       0.49294315000000000        0.0000000000000000     
  0.63337980999999999       0.64485914000000000        0.0000000000000000     
  0.50012352000000004       0.29676539000000002        0.0000000000000000     
  0.82552601000000003       0.92753492000000004        0.0000000000000000     
  0.92774772999999999       0.82498556999999995        0.0000000000000000     
   7.1970870000000006E-002  0.17510291000000000        0.0000000000000000     
  0.17422821999999999        7.2635640000000001E-002   0.0000000000000000     
  0.82510813000000005        7.2134840000000006E-002   0.0000000000000000     
  0.92754665000000003       0.17446275999999999        0.0000000000000000     
  0.17501022999999999       0.92789951999999998        0.0000000000000000     
   7.2464680000000004E-002  0.82554053000000005        0.0000000000000000     
  0.30731587999999999       0.50885354999999999        0.0000000000000000     
  0.59033407999999998       0.22171178999999999        0.0000000000000000     
  0.40109191999999999       0.78725542000000004        0.0000000000000000     
  0.35420917000000002       0.63754104000000000        0.0000000000000000     
  0.15983976999999999       0.56665573000000002        0.0000000000000000     
  0.84108459999999996       0.56757886999999996        0.0000000000000000     
  0.83902096000000004       0.43344338999999998        0.0000000000000000     
  0.43230028999999998       0.16004268999999999        0.0000000000000000     
  0.57536027999999995       0.83041363999999995        0.0000000000000000     
  0.15771898000000001       0.42747892999999998        0.0000000000000000     
  0.34021692999999997       0.34221559000000001        0.0000000000000000     
  0.56002271999999997       0.57501117999999996        0.0000000000000000     
  0.65344329000000001       0.78147597999999996        0.0000000000000000     
   0.0000000000000000        0.0000000000000000        0.0000000000000000     
   1.0000000000000000        0.0000000000000000        0.0000000000000000     
   1.0000000000000000        1.0000000000000000        0.0000000000000000     
   0.0000000000000000        1.0000000000000000        0.0000000000000000     
  0.11111111000000000        0.0000000000000000        0.0000000000000000     
  0.22222222000000000        0.0000000000000000        0.0000000000000000     
  0.33333332999999998        0.0000000000000000        0.0000000000000000     
  0.44444444000000000        0.0000000000000000        0.0000000000000000     
  0.55555555999999995        0.0000000000000000        0.0000000000000000     
  0.66666667000000002        0.0000000000000000        0.0000000000000000     
  0.77777777999999997        0.0000000000000000        0.0000000000000000     
  0.88888889000000004        0.0000000000000000        0.0000000000000000     
   1.0000000000000000       0.11111111000000000        0.0000000000000000     
   1.0000000000000000       0.22222222000000000        0.0000000000000000     
   1.0000000000000000       0.33333332999999998        0.0000000000000000     
   1.0000000000000000       0.44444444000000000        0.0000000000000000     
   1.0000000000000000       0.55555555999999995        0.0000000000000000     
   1.0000000000000000       0.66666667000000002        0.0000000000000000     
   1.0000000000000000       0.77777777999999997        0.0000000000000000     
   1.0000000000000000       0.88888889000000004        0.0000000000000000     
  0.88888889000000004        1.0000000000000000        0.0000000000000000     
  0.77777777999999997        1.0000000000000000        0.0000000000000000     
  0.66666667000000002        1.0000000000000000        0.0000000000000000     
  0.55555555999999995        1.0000000000000000        0.0000000000000000     
  0.44444444000000000        1.0000000000000000        0.0000000000000000     
  0.33333332999999998        1.0000000000000000        0.0000000000000000     
  0.22222222000000000        1.0000000000000000        0.0000000000000000     
  0.11111111000000000        1.0000000000000000        0.0000000000000000     
   0.0000000000000000       0.11111111000000000        0.0000000000000000     
   0.0000000000000000       0.22222222000000000        0.0000000000000000     
[...]
 CELL_DATA         354
 SCALARS V float
 LOOKUP_TABLE default
    0.30851360050362278131E-01
    0.40781761032396987576E-01
    0.22326467241610185865E-01
    0.18622507596858135781E-01
    0.33610931085974737886E-01
    0.36268183185890562337E-01
    0.43313858768387232534E-01
    0.39490494758353103522E-01
    0.46979718985299304124E-01
    0.50854761465612900728E-01
    0.58523863618944849119E-01
    0.54337092738024186933E-01
    0.60165653502997448743E-01
    0.59180441500799471632E-01
    0.56935641678872848936E-01
    0.58292032099338808582E-01
    0.54233048148574165837E-01
    0.50198686229878289322E-01
    0.43970701441204636251E-01
    0.46851304175962116272E-01
    0.42662221542717940204E-01
    0.43880587911962330716E-01
    0.47124130758463153579E-01
    0.45330905330262072361E-01
    0.47489947381942496096E-01
    0.46471404172122511567E-01
    0.43924065292673002137E-01
    0.45353941295171562587E-01
    0.41819958581303204315E-01
    0.38793941048931968041E-01
    0.33563958399694435175E-01
    0.36222864523635892042E-01
    0.30994906734037770690E-01
    0.28282543641354705721E-01
    0.24229728690712350886E-01
    0.26042141770580298776E-01
    0.23245485743478323803E-01
    0.23873920519278432617E-01
    0.25943111624288112127E-01
    0.24751254671184545753E-01
    0.26557231710572490324E-01
    0.26676558923259090228E-01
    0.27200386699645463101E-01
    0.26852957095847236613E-01
    0.26793769197777921043E-01
    0.25509587178624244103E-01
    0.24145848192519699105E-01
    0.24718470025767373677E-01
    0.23135408519255031001E-01
    0.21674850427401748387E-01
    0.19677917373202825913E-01
    0.20544463015834735220E-01
    0.31868783111103859973E-01
    0.32402158777104901610E-01
    0.34300014535863121434E-01
    0.33190937997323498310E-01
    0.34492428584004961034E-01
    0.33806946878534055445E-01
    0.32617292615909752873E-01
    0.33220242329106350332E-01
    0.31448850060811106566E-01
    0.29591941106418384599E-01
    0.26406380279967958669E-01
    0.28029446076840429380E-01
    0.24716793685005671033E-01
    0.22791868239810934849E-01
    0.19991125096576113640E-01
    0.21232360504196998857E-01
    0.70506928812598609890E-01
    0.63446817503999233812E-01
    0.59159668466200861225E-01
    0.66782785696550911458E-01
    0.61188176949831418749E-01
    0.61160052184365418237E-01
    0.54716389329440187628E-01
    0.51451133242360627684E-01
    0.53275274689229573655E-01
    0.58824746323568349871E-01
    0.42557347850908901210E-01
    0.45878119607453277107E-01
    0.38695257650629151513E-01
    0.40884655879751943819E-01
    0.46120858243797718812E-01
    0.39848539374915829814E-01
    0.68635653311182431846E-01
    0.79860064290019988631E-01
    0.87696804208283810067E-01
    0.72592322426115518663E-01
    0.70347763854632996972E-01
    0.75330325397187786196E-01
    0.83586750843262294652E-01
    0.40017211325437153369E-01
    0.39020471202704395952E-01
    0.34945468880797560252E-01
    0.34191745161602615788E-01
    0.36502836431151916563E-01
    0.41061750985086381549E-01
    0.51459055027569838847E-01
    0.61398536636777294173E-01
    0.53533832982240570075E-01
    0.59899439460524506185E-01
    0.51205832542397633489E-01
    0.56119921549119218540E-01
    0.72962622836524326786E-01
    0.73612965911342628789E-01
    0.81471132905100412946E-01
    0.81419476780087138290E-01
    0.71551060391724680132E-01
    0.43184779617721651135E-01
    0.40756811769939484125E-01
    0.34328147301313713391E-01
    0.40472468309221965033E-01
    0.36808268999681557909E-01
    0.36418421523294983166E-01
    0.50221133006981617808E-01
    0.39507197533723802108E-01
    0.42760644151898716259E-01
    0.47431864724065547767E-01
    0.47439205758787891809E-01
    0.40124799974939159841E-01
    0.42724005951732993425E-01
    0.30020967662529891157E-01
    0.32703076653358337245E-01
    0.27827090589686194477E-01
    0.33173801198062922990E-01
    0.34789720137121886434E-01
    0.28186418805475656202E-01
    0.29628441276864706660E-01
    0.40237356073892734110E-01
    0.45012122816864306996E-01
    0.38115174582503394407E-01
    0.47237480839061991855E-01
    0.44600626423178413305E-01
    0.38203100444219706411E-01
    0.40812989968772424298E-01
    0.54908376606509670670E-01
    0.59128204425888536422E-01
    0.51015147222875090183E-01
    0.60728156757164593327E-01
    0.63680556411494226854E-01
    0.53924772182709988788E-01
    0.51782634034271066148E-01
    0.26890549000889996112E-01
    0.26079850594223283333E-01
    0.23386040587473507640E-01
    0.29112090168753032571E-01
    0.28663036027162268338E-01
    0.24100429044273889712E-01
    0.24551801875365233258E-01
    0.63365429466381253953E-01
    0.70487391157221551685E-01
    0.74958033810302304722E-01
    0.66446101470728380356E-01
    0.77828305209739587212E-01
    0.65753347538822198848E-01
    0.54584815044053977551E-01
    0.60826610353576802959E-01
    0.62782706773334903683E-01
    0.54011501861741827157E-01
    0.58087394673345754681E-01
    0.45738637981542457078E-01
    0.54868578855726990451E-01
    0.51825493506117377429E-01
    0.50213688211965611108E-01
    0.47166942110991906534E-01
    0.31160285699145810062E-01
    0.34004733533737667439E-01
    0.31113026692024571551E-01
    0.33750228727896611214E-01
    0.35343099917140859134E-01
    0.53144712083287561077E-01
    0.62604301001206785759E-01
    0.55731758897162531063E-01
    0.57162220283990559933E-01
    0.62463261100571279560E-01
    0.40417876276062927876E-01
    0.44519589289872103788E-01
    0.45876013603420806586E-01
    0.39331198484140010574E-01
    0.42038484714669602238E-01
    0.64332781235200461878E-01
    0.56460640468297157435E-01
    0.62687085486008237156E-01
    0.54824916257518410689E-01
    0.58123411874237598806E-01
    0.38269813434743039926E-01
    0.45493652482656299352E-01
    0.40627867157341179816E-01
    0.40862117972751806072E-01
    0.44724678914905231786E-01
    0.70280301624475474687E-01
    0.66348560741200643398E-01
    0.71860273370233193613E-01
    0.66946422982367373433E-01
    0.77235850652852378051E-01
    0.30596495992278302523E-01
    0.36733054070391964185E-01
    0.32987802592123000034E-01
    0.32130043028909011094E-01
    0.35310743428859758808E-01
    0.30351425869259110457E-01
    0.28172635526190415584E-01
    0.30696853483457055278E-01
    0.28400173902255257397E-01
    0.32493846514558888394E-01
    0.86768087937920790331E-01
    0.73172819252875775931E-01
    0.79863685145857815639E-01
    0.70994688215892831629E-01
    0.73443873642364251864E-01
    0.45561368999672127722E-01
    0.45081196191692388120E-01
    0.50751034291137052390E-01
    0.49253929117377630298E-01
    0.52819351515573605138E-01
    0.59132881526314337584E-01
    0.53200511950760066837E-01
    0.53236655253771400509E-01
    0.59202715250226120580E-01
    0.87334660688792170591E-01
    0.91144685151363022402E-01
    0.91531259529233369165E-01
    0.47684595644373918566E-01
    0.38873399091190266597E-01
    0.43815858265179002951E-01
    0.28176762517606986080E-01
    0.29528783527214351456E-01
    0.33017252184265086234E-01
    0.32553797247079074850E-01
    0.32898722515461137350E-01
    0.35703492302304358497E-01
    0.36270878213886657837E-01
    0.38572769567128586954E-01
    0.43138435889647122612E-01
    0.48320049008710563854E-01
    0.47226540607297987084E-01
    0.51607879932096915876E-01
    0.64756992181476791259E-01
    0.61010490728787204751E-01
    0.76025085589331159452E-01
    0.66770813367969361618E-01
    0.45915591314366829834E-01
    0.38337256155430113336E-01
    0.39739755087872537243E-01
    0.66089063528266669967E-01
    0.60984789744444441173E-01
    0.32038870289234550048E-01
    0.28891091144508249805E-01
    0.27381375614630908133E-01
    0.42420828290004417016E-01
    0.37087361594980425283E-01
    0.36589453697955950928E-01
    0.50030386460344605792E-01
    0.51896541414389478486E-01
    0.43024858163035119285E-01
    0.58376474442791599639E-01
    0.51199400758220547925E-01
    0.50061569913216939776E-01
    0.36455804257122664813E-01
    0.37054947027034462748E-01
    0.30959738603002041196E-01
    0.65585850150192054331E-01
    0.62007412158805716440E-01
    0.55361276312434794244E-01
    0.29751751454411622805E-01
    0.29157138759225469798E-01
    0.25101284461484112825E-01
    0.28420717967526706177E-01
    0.26283300917067035918E-01
    0.23992923519500039542E-01
    0.59633746620058700194E-01
    0.76501932311579229351E-01
    0.67654521351469584789E-01
    0.64753393867316239030E-01
    0.43960717827732823104E-01
    0.57047115387957161858E-01
    0.50044125498135916263E-01
    0.48804360458545532897E-01
    0.36314768002294675608E-01
    0.45858898937299774623E-01
    0.42864223402622331216E-01
    0.38956634078715288161E-01
    0.69541524936434534476E-01
    0.73367848214896863590E-01
    0.83046698016486647509E-01
    0.57268309547879640842E-01
    0.55258983371883022007E-01
    0.34982054881419588632E-01
    0.37076650917350607861E-01
    0.25636209472725823844E-01
    0.26799814061673449261E-01
    0.48735172065233041405E-01
    0.47076339801979082134E-01
    0.21797774151161748712E-01
    0.22165544193888955804E-01
    0.49553326989930167323E-01
    0.36926061975553849115E-01
    0.36694485729223472181E-01
    0.67702403517164555513E-01
    0.31647585923684759535E-01
    0.48663836056840964472E-01
    0.78426780667899639865E-01
    0.33403537453468051810E-01
    0.66596469957330928224E-01
    0.48393477215355064358E-01
    0.55725245151388796971E-01
    0.45335365614660921851E-01
    0.55868797983814832975E-01
    0.31730165952635058790E-01
    0.33946099213550073870E-01
    0.43713753835723824503E-01
    0.52901616906112405858E-01
    0.61586036576039872303E-01
    0.38772041233608896260E-01
    0.62637505254447195524E-01
    0.53676500650102675072E-01
    0.87609305294923459084E-01
    0.36423215400118058582E-01
    0.30330423093700098480E-01
    0.28812014767976259350E-01
    0.39502552611490340806E-01
    0.38380109461220446310E-01
    0.21814500686081327724E-01
    0.20952325198721092475E-01
    0.17672429648545824599E-01
    0.17947438187297912876E-01
    0.36350582718563395623E-01
    0.43084669766937290503E-01
    0.49504219303710239597E-01
    0.54377925165735668811E-01
    0.54952932778424820603E-01
    0.51965057798830531499E-01
    0.45990247264164105245E-01
    0.41749469604421433899E-01
    0.43609526283162308724E-01
    0.42741636894575919803E-01
    0.39903565996343634548E-01
    0.35494686187932944499E-01
    0.30722720012037088577E-01
    0.25985304451470091214E-01
    0.22785719441104409361E-01
    0.24282001887688836606E-01
    0.24883118432688401678E-01
    0.24798506161980073126E-01
    0.23626113751799598939E-01
    0.22045774174680093926E-01
    0.19878427731673451589E-01
    0.30683825084144945861E-01
    0.31723699149536779829E-01
    0.31225289809557903176E-01
    0.29693419629108021296E-01
    0.27086599586371711001E-01
    0.24098698568581711221E-01
    0.20898244971507873996E-01
