# vtk DataFile Version 3.0
LAPLACIEN  2D
ASCII
DATASET UNSTRUCTURED_GRID
 POINTS         391  float
  0.50371505999999999       0.50367786999999997        0.0000000000000000     
  0.29013556000000001       0.29014535000000002        0.0000000000000000     
  0.70165584999999997       0.71206597999999999        0.0000000000000000     
  0.70304188999999995       0.30176619999999998        0.0000000000000000     
  0.30920671999999999       0.71149227999999998        0.0000000000000000     
  0.79044983999999996       0.49884783999999999        0.0000000000000000     
  0.49102621000000002       0.20968644000000000        0.0000000000000000     
  0.49912957000000002       0.77208717000000004        0.0000000000000000     
  0.21724072999999999       0.48989389000000000        0.0000000000000000     
  0.83255933999999998       0.83046598000000005        0.0000000000000000     
  0.16646774000000000       0.17015694000000001        0.0000000000000000     
  0.83054514999999995       0.16736480000000001        0.0000000000000000     
  0.16953130999999999       0.83265739000000005        0.0000000000000000     
  0.42166445000000002       0.36345201999999999        0.0000000000000000     
  0.64462200999999997       0.56347807999999999        0.0000000000000000     
  0.35324633999999999       0.56311191000000005        0.0000000000000000     
  0.65456411000000003       0.84856860999999995        0.0000000000000000     
  0.35141477999999998       0.15563974000000000        0.0000000000000000     
  0.15290967000000000       0.35206625000000003        0.0000000000000000     
  0.82942241000000005       0.34936866000000000        0.0000000000000000     
  0.84390527000000004       0.64441694999999999        0.0000000000000000     
  0.63699174999999997       0.14284276000000001        0.0000000000000000     
  0.15620682999999999       0.64648446999999998        0.0000000000000000     
  0.36426062999999997       0.85756310999999996        0.0000000000000000     
  0.63489340999999999       0.40519052000000000        0.0000000000000000     
  0.52518872999999999       0.65957078000000002        0.0000000000000000     
  0.32158959999999998       0.42298103999999997        0.0000000000000000     
  0.58861710000000000       0.31711036999999997        0.0000000000000000     
  0.42078418000000001       0.69497151999999995        0.0000000000000000     
  0.48608786999999998       0.89334152000000000        0.0000000000000000     
   9.7084320000000002E-002  0.50000000000000000        0.0000000000000000     
  0.90291568000000000       0.50000000000000000        0.0000000000000000     
  0.51392453000000005       0.10668648999999999        0.0000000000000000     
  0.59792566999999996       0.73122754000000001        0.0000000000000000     
  0.74510058999999995       0.41124730999999998        0.0000000000000000     
  0.73212551999999997       0.90191560000000004        0.0000000000000000     
   9.7784830000000003E-002  0.26957329000000002        0.0000000000000000     
  0.26711221000000002        9.8671499999999995E-002   0.0000000000000000     
  0.90191560000000004       0.26787448000000003        0.0000000000000000     
  0.90118569000000004       0.73039821000000005        0.0000000000000000     
  0.73122947000000005        9.8017859999999998E-002   0.0000000000000000     
   9.8084400000000002E-002  0.73212551999999997        0.0000000000000000     
  0.26957329000000002       0.90221516999999996        0.0000000000000000     
  0.39283522999999998       0.25360379000000000        0.0000000000000000     
  0.74480864000000002       0.60495284999999999        0.0000000000000000     
  0.25505132000000003       0.60593640999999998        0.0000000000000000     
  0.52159297999999998       0.40671636000000000        0.0000000000000000     
  0.40768852000000000       0.47699891000000000        0.0000000000000000     
   9.1467049999999994E-002   9.1876959999999994E-002   0.0000000000000000     
  0.90842484999999995       0.90819225000000003        0.0000000000000000     
  0.90820104999999995        9.1566729999999999E-002   0.0000000000000000     
   9.1807449999999999E-002  0.90843574000000005        0.0000000000000000     
  0.27098960000000000       0.20527094000000001        0.0000000000000000     
  0.73457293999999995       0.79835387000000002        0.0000000000000000     
  0.79817773000000003       0.25713470999999999        0.0000000000000000     
  0.20747797000000001       0.72863946000000002        0.0000000000000000     
  0.20175195000000001       0.27583914999999998        0.0000000000000000     
  0.79603889000000005       0.72159035000000005        0.0000000000000000     
  0.71761666000000002       0.19748431999999999        0.0000000000000000     
  0.28462607000000001       0.80251899999999998        0.0000000000000000     
  0.69134598999999997       0.49261972999999998        0.0000000000000000     
  0.44720578999999999       0.58582935999999997        0.0000000000000000     
  0.24242269999999999       0.37228174000000003        0.0000000000000000     
  0.38265623999999998       0.93072131999999996        0.0000000000000000     
  0.60971754000000000       0.91988369000000003        0.0000000000000000     
   7.9163609999999995E-002  0.60979116000000000        0.0000000000000000     
  0.92010649000000000       0.61081183999999999        0.0000000000000000     
  0.61954008999999999        7.1530830000000004E-002   0.0000000000000000     
  0.91882012999999996       0.38917363999999999        0.0000000000000000     
  0.39086346000000000        8.0652249999999995E-002   0.0000000000000000     
   7.9183480000000001E-002  0.38966213000000000        0.0000000000000000     
  0.59114111999999996       0.49294315000000000        0.0000000000000000     
  0.63337980999999999       0.64485914000000000        0.0000000000000000     
  0.50012352000000004       0.29676539000000002        0.0000000000000000     
  0.82552601000000003       0.92753492000000004        0.0000000000000000     
  0.92774772999999999       0.82498556999999995        0.0000000000000000     
   7.1970870000000006E-002  0.17510291000000000        0.0000000000000000     
  0.17422821999999999        7.2635640000000001E-002   0.0000000000000000     
  0.82510813000000005        7.2134840000000006E-002   0.0000000000000000     
  0.92754665000000003       0.17446275999999999        0.0000000000000000     
  0.17501022999999999       0.92789951999999998        0.0000000000000000     
   7.2464680000000004E-002  0.82554053000000005        0.0000000000000000     
  0.30731587999999999       0.50885354999999999        0.0000000000000000     
  0.59033407999999998       0.22171178999999999        0.0000000000000000     
  0.40109191999999999       0.78725542000000004        0.0000000000000000     
  0.35420917000000002       0.63754104000000000        0.0000000000000000     
  0.15983976999999999       0.56665573000000002        0.0000000000000000     
  0.84108459999999996       0.56757886999999996        0.0000000000000000     
  0.83902096000000004       0.43344338999999998        0.0000000000000000     
  0.43230028999999998       0.16004268999999999        0.0000000000000000     
  0.57536027999999995       0.83041363999999995        0.0000000000000000     
  0.15771898000000001       0.42747892999999998        0.0000000000000000     
  0.34021692999999997       0.34221559000000001        0.0000000000000000     
  0.56002271999999997       0.57501117999999996        0.0000000000000000     
  0.65344329000000001       0.78147597999999996        0.0000000000000000     
   0.0000000000000000        0.0000000000000000        0.0000000000000000     
   1.0000000000000000        0.0000000000000000        0.0000000000000000     
   1.0000000000000000        1.0000000000000000        0.0000000000000000     
   0.0000000000000000        1.0000000000000000        0.0000000000000000     
  0.11111111000000000        0.0000000000000000        0.0000000000000000     
  0.22222222000000000        0.0000000000000000        0.0000000000000000     
  0.33333332999999998        0.0000000000000000        0.0000000000000000     
  0.44444444000000000        0.0000000000000000        0.0000000000000000     
  0.55555555999999995        0.0000000000000000        0.0000000000000000     
  0.66666667000000002        0.0000000000000000        0.0000000000000000     
  0.77777777999999997        0.0000000000000000        0.0000000000000000     
  0.88888889000000004        0.0000000000000000        0.0000000000000000     
   1.0000000000000000       0.11111111000000000        0.0000000000000000     
   1.0000000000000000       0.22222222000000000        0.0000000000000000     
   1.0000000000000000       0.33333332999999998        0.0000000000000000     
   1.0000000000000000       0.44444444000000000        0.0000000000000000     
   1.0000000000000000       0.55555555999999995        0.0000000000000000     
   1.0000000000000000       0.66666667000000002        0.0000000000000000     
   1.0000000000000000       0.77777777999999997        0.0000000000000000     
   1.0000000000000000       0.88888889000000004        0.0000000000000000     
  0.88888889000000004        1.0000000000000000        0.0000000000000000     
  0.77777777999999997        1.0000000000000000        0.0000000000000000     
  0.66666667000000002        1.0000000000000000        0.0000000000000000     
  0.55555555999999995        1.0000000000000000        0.0000000000000000     
  0.44444444000000000        1.0000000000000000        0.0000000000000000     
  0.33333332999999998        1.0000000000000000        0.0000000000000000     
  0.22222222000000000        1.0000000000000000        0.0000000000000000     
  0.11111111000000000        1.0000000000000000        0.0000000000000000     
   0.0000000000000000       0.11111111000000000        0.0000000000000000     
   0.0000000000000000       0.22222222000000000        0.0000000000000000     
[...]
 CELL_DATA         354
 SCALARS V float
 LOOKUP_TABLE default
    0.30851434233792364437E-01
    0.40781860161066059434E-01
    0.22326522710997727394E-01
    0.18622555616156253461E-01
    0.33610942607961054318E-01
    0.36268217431034636966E-01
    0.43313957552321369349E-01
    0.39490554696956003955E-01
    0.46979821230200141668E-01
    0.50854851281837136490E-01
    0.58524010534973691655E-01
    0.54337224412277985997E-01
    0.60165759656642031628E-01
    0.59180564311383833387E-01
    0.56935777450098250252E-01
    0.58292169693719017576E-01
    0.54233167606591629883E-01
    0.50198768101840075817E-01
    0.43970730843782133979E-01
    0.46851359098130471170E-01
    0.42662286754911495079E-01
    0.43880656968953143937E-01
    0.47124231878691844044E-01
    0.45330993919974263417E-01
    0.47490087719652088194E-01
    0.46471531838983073937E-01
    0.43924159162039649873E-01
    0.45354037975407622552E-01
    0.41820060810368236970E-01
    0.38794026533626714548E-01
    0.33564030469574193671E-01
    0.36222931391955009994E-01
    0.30994981060332674194E-01
    0.28282592664555003537E-01
    0.24229743535986919545E-01
    0.26042170300249637555E-01
    0.23245528751051423855E-01
    0.23873961857497461025E-01
    0.25943176431590494330E-01
    0.24751308820946060774E-01
    0.26557317706706183580E-01
    0.26676636960914993507E-01
    0.27200475147621201721E-01
    0.26853033740813450625E-01
    0.26793843235072334341E-01
    0.25509652461529006701E-01
    0.24145918838825823627E-01
    0.24718540789398741470E-01
    0.23135469180262747957E-01
    0.21674897232025140681E-01
    0.19677947493877228496E-01
    0.20544496043454183593E-01
    0.31868846181010615504E-01
    0.32402215755779471829E-01
    0.34300095179965392478E-01
    0.33191010632517989332E-01
    0.34492536372358884034E-01
    0.33807044146209268287E-01
    0.32617371962575879285E-01
    0.33220320147218956874E-01
    0.31448933677783001694E-01
    0.29592012572285913974E-01
    0.26406452547594005259E-01
    0.28029511447841014282E-01
    0.24716856851042860038E-01
    0.22791912089297372557E-01
    0.19991145548399431864E-01
    0.21232389135381508904E-01
    0.70506945127278577989E-01
    0.63446795694064167526E-01
    0.59159577871901146418E-01
    0.66782786409142480544E-01
    0.61188102515670445003E-01
    0.61160092601882716512E-01
    0.54716397485096442133E-01
    0.51451088851631264498E-01
    0.53275215304427067653E-01
    0.58824711883724359329E-01
    0.42557384606213007061E-01
    0.45878160406940260430E-01
    0.38695254288911781759E-01
    0.40884673975695277892E-01
    0.46120852181565488714E-01
    0.39848600119996871460E-01
    0.68635623835650347302E-01
    0.79859889557895441525E-01
    0.87696229405763104214E-01
    0.72592294444780644525E-01
    0.70347720950001996210E-01
    0.75330335386115804264E-01
    0.83586450737809459000E-01
    0.40017157068169544043E-01
    0.39020446393981084166E-01
    0.34945462915233184431E-01
    0.34191748724515386160E-01
    0.36502831845860145288E-01
    0.41061686229214536259E-01
    0.51459022615663693734E-01
    0.61398538510018765835E-01
    0.53533833277108720805E-01
    0.59899389115176518428E-01
    0.51205890254967675879E-01
    0.56119881598112923704E-01
    0.72962529121480004801E-01
    0.73612859567229849134E-01
    0.81471055944970227625E-01
    0.81419420179740936705E-01
    0.71551057684924493363E-01
    0.43184767737970586321E-01
    0.40756826449608374308E-01
    0.34328096811791372622E-01
    0.40472478572608279468E-01
    0.36808245753998158900E-01
    0.36418430079097889596E-01
    0.50221068415583290656E-01
    0.39507182253083625301E-01
    0.42760640407337936753E-01
    0.47431880612475038617E-01
    0.47439154852964633691E-01
    0.40124862373066991217E-01
    0.42724037354513466624E-01
    0.30020980341429651106E-01
    0.32703095495769954337E-01
    0.27827104705765923209E-01
    0.33173770369704508321E-01
    0.34789698486222521423E-01
    0.28186470560743456804E-01
    0.29628480534605348279E-01
    0.40237382604733626379E-01
    0.45012139374972372219E-01
    0.38115192746153048198E-01
    0.47237429910413374079E-01
    0.44600592835081540044E-01
    0.38203157087779521239E-01
    0.40813040896678254299E-01
    0.54908370510620113647E-01
    0.59128211849255235544E-01
    0.51015158293904620812E-01
    0.60728076219116924883E-01
    0.63680485869590797154E-01
    0.53924835229989490082E-01
    0.51782712868985336652E-01
    0.26890571319549184254E-01
    0.26079876502278522693E-01
    0.23386054985094037462E-01
    0.29112070314003264671E-01
    0.28663022927374520732E-01
    0.24100470409775379133E-01
    0.24551844101996456171E-01
    0.63365433339517510114E-01
    0.70487374588379780871E-01
    0.74957938723133818448E-01
    0.66446061231270808767E-01
    0.77828202883191907602E-01
    0.65753372305398780084E-01
    0.54584721197855366748E-01
    0.60826582693618361231E-01
    0.62782728281981947660E-01
    0.54011433624696417177E-01
    0.58087354888896970684E-01
    0.45738555825544827127E-01
    0.54868645942925363401E-01
    0.51825520540696258520E-01
    0.50213666188062396067E-01
    0.47166920955537657012E-01
    0.31160233595996719713E-01
    0.34004709190704307531E-01
    0.31112963045962595265E-01
    0.33750240545282104987E-01
    0.35343101552183814329E-01
    0.53144606844197528339E-01
    0.62604282826948895457E-01
    0.55731728515415773773E-01
    0.57162119748266702890E-01
    0.62463247800808703591E-01
    0.40417815846552844483E-01
    0.44519596539922989820E-01
    0.45876050814690004509E-01
    0.39331132355352967089E-01
    0.42038486582149738047E-01
    0.64332798499342799814E-01
    0.56460570466377250909E-01
    0.62687062121584022356E-01
    0.54824844427775368261E-01
    0.58123418942949561794E-01
    0.38269747844050620855E-01
    0.45493674778981918472E-01
    0.40627867974410342145E-01
    0.40862060027618274383E-01
    0.44724690499341419880E-01
    0.70280297413371578541E-01
    0.66348455657341320890E-01
    0.71860254235742535012E-01
    0.66946432336954977971E-01
    0.77235736440294772143E-01
    0.30596446901195763213E-01
    0.36733085701473197626E-01
    0.32987818116991265982E-01
    0.32129995805761105143E-01
    0.35310754962356853681E-01
    0.30351481871477573732E-01
    0.28172605565789467230E-01
    0.30696878056287891373E-01
    0.28400195309490866569E-01
    0.32493880680613485001E-01
    0.86767719666978132542E-01
    0.73172817705974654845E-01
    0.79863545119444212528E-01
    0.70994641334894817430E-01
    0.73443835194924228515E-01
    0.45561352960866705053E-01
    0.45081210343128785833E-01
    0.50751037505460658283E-01
    0.49253916431880137572E-01
    0.52819336038885611462E-01
    0.59132903199229938651E-01
    0.53200438193474863802E-01
    0.53236645249434375038E-01
    0.59202678692853040465E-01
    0.87334247945734563845E-01
    0.91144036503125136495E-01
    0.91530484163752034998E-01
    0.47684605211172181871E-01
    0.38873401988349522151E-01
    0.43815848449753204419E-01
    0.28176818914183842518E-01
    0.29528771453034084737E-01
    0.33017218004341514215E-01
    0.32553761394212607505E-01
    0.32898709013024718395E-01
    0.35703464188947771352E-01
    0.36270876990314809829E-01
    0.38572702239504846888E-01
    0.43138416119546107996E-01
    0.48320005938492095743E-01
    0.47226533581173277265E-01
    0.51607778060328575453E-01
    0.64757078206230889172E-01
    0.61010438748370122986E-01
    0.76024875387830259665E-01
    0.66770728084931216251E-01
    0.45915586542827083183E-01
    0.38337257134594827923E-01
    0.39739794511014510381E-01
    0.66089043927969701175E-01
    0.60984841271088566228E-01
    0.32038843816568220169E-01
    0.28891056571588021734E-01
    0.27381416597879591757E-01
    0.42420800660314068875E-01
    0.37087334736300228699E-01
    0.36589495433332230867E-01
    0.50030336244057213579E-01
    0.51896453201123467214E-01
    0.43024920645343703307E-01
    0.58376377686020539115E-01
    0.51199385243272138579E-01
    0.50061630388581898621E-01
    0.36455772628577159944E-01
    0.37054894419704414998E-01
    0.30959790680434199489E-01
    0.65585766356447028347E-01
    0.62007332768828117564E-01
    0.55361349084110195173E-01
    0.29751730243136809834E-01
    0.29157104545077101171E-01
    0.25101328308848938620E-01
    0.28420707495097678047E-01
    0.26283283850509327195E-01
    0.23992963973687646967E-01
    0.59633769645795045578E-01
    0.76501749134397084573E-01
    0.67654516736474892835E-01
    0.64753438178993594221E-01
    0.43960750885213617511E-01
    0.57047030349125199544E-01
    0.50044102171360946296E-01
    0.48804401841482644708E-01
    0.36314794549829623738E-01
    0.45858795889511083654E-01
    0.42864174807832146341E-01
    0.38956683624626772811E-01
    0.69541465611601238628E-01
    0.73367856231985800752E-01
    0.83046445845367106164E-01
    0.57268300836020462341E-01
    0.55259027331412732820E-01
    0.34982061218650065126E-01
    0.37076650523783359625E-01
    0.25636216438933275008E-01
    0.26799814542070986984E-01
    0.48735160111546514672E-01
    0.47076338462004339858E-01
    0.21797778587592846200E-01
    0.22165548216906805212E-01
    0.49553278975644723947E-01
    0.36926049366168285648E-01
    0.36694465673118049909E-01
    0.67702355013249476690E-01
    0.31647570783275506823E-01
    0.48663837863546839657E-01
    0.78426813549596213759E-01
    0.33403577321128107014E-01
    0.66596462927809574328E-01
    0.48393503984306862620E-01
    0.55725205271891023462E-01
    0.45335449184014539603E-01
    0.55868738654873816019E-01
    0.31730127417433723336E-01
    0.33946072433928282941E-01
    0.43713720058459332174E-01
    0.52901548643907947422E-01
    0.61585945505660676103E-01
    0.38771994052737950021E-01
    0.62637479149970864967E-01
    0.53676438495968002707E-01
    0.87608964403355402140E-01
    0.36423217838967361648E-01
    0.30330459375834360747E-01
    0.28812114956765874640E-01
    0.39502623290837327041E-01
    0.38380226587323075516E-01
    0.21814532981637015790E-01
    0.20952394212115497962E-01
    0.17672479302349265035E-01
    0.17947476184805747496E-01
    0.36350643188242638681E-01
    0.43084803449167374811E-01
    0.49504372791597223147E-01
    0.54378105442691754279E-01
    0.54953133006008514361E-01
    0.51965240998839264119E-01
    0.45990353202093145479E-01
    0.41749604186213429280E-01
    0.43609691579818039842E-01
    0.42741795037139457270E-01
    0.39903703430719777989E-01
    0.35494796079890693352E-01
    0.30722814677297677344E-01
    0.25985351873256394561E-01
    0.22785794247110406630E-01
    0.24282099224675338794E-01
    0.24883218293763685602E-01
    0.24798609777068200688E-01
    0.23626204875589165016E-01
    0.22045858936666311995E-01
    0.19878485612065337207E-01
    0.30683930508643611490E-01
    0.31723823062800887707E-01
    0.31225409831940977023E-01
    0.29693529423866556194E-01
    0.27086692886963630034E-01
    0.24098784255475305671E-01
    0.20898294355900636637E-01
