# vtk DataFile Version 3.0
LAPLACIEN  2D
ASCII
DATASET UNSTRUCTURED_GRID
 POINTS         391  float
  0.50371505999999999       0.50367786999999997        0.0000000000000000     
  0.29013556000000001       0.29014535000000002        0.0000000000000000     
  0.70165584999999997       0.71206597999999999        0.0000000000000000     
  0.70304188999999995       0.30176619999999998        0.0000000000000000     
  0.30920671999999999       0.71149227999999998        0.0000000000000000     
  0.79044983999999996       0.49884783999999999        0.0000000000000000     
  0.49102621000000002       0.20968644000000000        0.0000000000000000     
  0.49912957000000002       0.77208717000000004        0.0000000000000000     
  0.21724072999999999       0.48989389000000000        0.0000000000000000     
  0.83255933999999998       0.83046598000000005        0.0000000000000000     
  0.16646774000000000       0.17015694000000001        0.0000000000000000     
  0.83054514999999995       0.16736480000000001        0.0000000000000000     
  0.16953130999999999       0.83265739000000005        0.0000000000000000     
  0.42166445000000002       0.36345201999999999        0.0000000000000000     
  0.64462200999999997       0.56347807999999999        0.0000000000000000     
  0.35324633999999999       0.56311191000000005        0.0000000000000000     
  0.65456411000000003       0.84856860999999995        0.0000000000000000     
  0.35141477999999998       0.15563974000000000        0.0000000000000000     
  0.15290967000000000       0.35206625000000003        0.0000000000000000     
  0.82942241000000005       0.34936866000000000        0.0000000000000000     
  0.84390527000000004       0.64441694999999999        0.0000000000000000     
  0.63699174999999997       0.14284276000000001        0.0000000000000000     
  0.15620682999999999       0.64648446999999998        0.0000000000000000     
  0.36426062999999997       0.85756310999999996        0.0000000000000000     
  0.63489340999999999       0.40519052000000000        0.0000000000000000     
  0.52518872999999999       0.65957078000000002        0.0000000000000000     
  0.32158959999999998       0.42298103999999997        0.0000000000000000     
  0.58861710000000000       0.31711036999999997        0.0000000000000000     
  0.42078418000000001       0.69497151999999995        0.0000000000000000     
  0.48608786999999998       0.89334152000000000        0.0000000000000000     
   9.7084320000000002E-002  0.50000000000000000        0.0000000000000000     
  0.90291568000000000       0.50000000000000000        0.0000000000000000     
  0.51392453000000005       0.10668648999999999        0.0000000000000000     
  0.59792566999999996       0.73122754000000001        0.0000000000000000     
  0.74510058999999995       0.41124730999999998        0.0000000000000000     
  0.73212551999999997       0.90191560000000004        0.0000000000000000     
   9.7784830000000003E-002  0.26957329000000002        0.0000000000000000     
  0.26711221000000002        9.8671499999999995E-002   0.0000000000000000     
  0.90191560000000004       0.26787448000000003        0.0000000000000000     
  0.90118569000000004       0.73039821000000005        0.0000000000000000     
  0.73122947000000005        9.8017859999999998E-002   0.0000000000000000     
   9.8084400000000002E-002  0.73212551999999997        0.0000000000000000     
  0.26957329000000002       0.90221516999999996        0.0000000000000000     
  0.39283522999999998       0.25360379000000000        0.0000000000000000     
  0.74480864000000002       0.60495284999999999        0.0000000000000000     
  0.25505132000000003       0.60593640999999998        0.0000000000000000     
  0.52159297999999998       0.40671636000000000        0.0000000000000000     
  0.40768852000000000       0.47699891000000000        0.0000000000000000     
   9.1467049999999994E-002   9.1876959999999994E-002   0.0000000000000000     
  0.90842484999999995       0.90819225000000003        0.0000000000000000     
  0.90820104999999995        9.1566729999999999E-002   0.0000000000000000     
   9.1807449999999999E-002  0.90843574000000005        0.0000000000000000     
  0.27098960000000000       0.20527094000000001        0.0000000000000000     
  0.73457293999999995       0.79835387000000002        0.0000000000000000     
  0.79817773000000003       0.25713470999999999        0.0000000000000000     
  0.20747797000000001       0.72863946000000002        0.0000000000000000     
  0.20175195000000001       0.27583914999999998        0.0000000000000000     
  0.79603889000000005       0.72159035000000005        0.0000000000000000     
  0.71761666000000002       0.19748431999999999        0.0000000000000000     
  0.28462607000000001       0.80251899999999998        0.0000000000000000     
  0.69134598999999997       0.49261972999999998        0.0000000000000000     
  0.44720578999999999       0.58582935999999997        0.0000000000000000     
  0.24242269999999999       0.37228174000000003        0.0000000000000000     
  0.38265623999999998       0.93072131999999996        0.0000000000000000     
  0.60971754000000000       0.91988369000000003        0.0000000000000000     
   7.9163609999999995E-002  0.60979116000000000        0.0000000000000000     
  0.92010649000000000       0.61081183999999999        0.0000000000000000     
  0.61954008999999999        7.1530830000000004E-002   0.0000000000000000     
  0.91882012999999996       0.38917363999999999        0.0000000000000000     
  0.39086346000000000        8.0652249999999995E-002   0.0000000000000000     
   7.9183480000000001E-002  0.38966213000000000        0.0000000000000000     
  0.59114111999999996       0.49294315000000000        0.0000000000000000     
  0.63337980999999999       0.64485914000000000        0.0000000000000000     
  0.50012352000000004       0.29676539000000002        0.0000000000000000     
  0.82552601000000003       0.92753492000000004        0.0000000000000000     
  0.92774772999999999       0.82498556999999995        0.0000000000000000     
   7.1970870000000006E-002  0.17510291000000000        0.0000000000000000     
  0.17422821999999999        7.2635640000000001E-002   0.0000000000000000     
  0.82510813000000005        7.2134840000000006E-002   0.0000000000000000     
  0.92754665000000003       0.17446275999999999        0.0000000000000000     
  0.17501022999999999       0.92789951999999998        0.0000000000000000     
   7.2464680000000004E-002  0.82554053000000005        0.0000000000000000     
  0.30731587999999999       0.50885354999999999        0.0000000000000000     
  0.59033407999999998       0.22171178999999999        0.0000000000000000     
  0.40109191999999999       0.78725542000000004        0.0000000000000000     
  0.35420917000000002       0.63754104000000000        0.0000000000000000     
  0.15983976999999999       0.56665573000000002        0.0000000000000000     
  0.84108459999999996       0.56757886999999996        0.0000000000000000     
  0.83902096000000004       0.43344338999999998        0.0000000000000000     
  0.43230028999999998       0.16004268999999999        0.0000000000000000     
  0.57536027999999995       0.83041363999999995        0.0000000000000000     
  0.15771898000000001       0.42747892999999998        0.0000000000000000     
  0.34021692999999997       0.34221559000000001        0.0000000000000000     
  0.56002271999999997       0.57501117999999996        0.0000000000000000     
  0.65344329000000001       0.78147597999999996        0.0000000000000000     
   0.0000000000000000        0.0000000000000000        0.0000000000000000     
   1.0000000000000000        0.0000000000000000        0.0000000000000000     
   1.0000000000000000        1.0000000000000000        0.0000000000000000     
   0.0000000000000000        1.0000000000000000        0.0000000000000000     
  0.11111111000000000        0.0000000000000000        0.0000000000000000     
  0.22222222000000000        0.0000000000000000        0.0000000000000000     
  0.33333332999999998        0.0000000000000000        0.0000000000000000     
  0.44444444000000000        0.0000000000000000        0.0000000000000000     
  0.55555555999999995        0.0000000000000000        0.0000000000000000     
  0.66666667000000002        0.0000000000000000        0.0000000000000000     
  0.77777777999999997        0.0000000000000000        0.0000000000000000     
  0.88888889000000004        0.0000000000000000        0.0000000000000000     
   1.0000000000000000       0.11111111000000000        0.0000000000000000     
   1.0000000000000000       0.22222222000000000        0.0000000000000000     
   1.0000000000000000       0.33333332999999998        0.0000000000000000     
   1.0000000000000000       0.44444444000000000        0.0000000000000000     
   1.0000000000000000       0.55555555999999995        0.0000000000000000     
   1.0000000000000000       0.66666667000000002        0.0000000000000000     
   1.0000000000000000       0.77777777999999997        0.0000000000000000     
   1.0000000000000000       0.88888889000000004        0.0000000000000000     
  0.88888889000000004        1.0000000000000000        0.0000000000000000     
  0.77777777999999997        1.0000000000000000        0.0000000000000000     
  0.66666667000000002        1.0000000000000000        0.0000000000000000     
  0.55555555999999995        1.0000000000000000        0.0000000000000000     
  0.44444444000000000        1.0000000000000000        0.0000000000000000     
  0.33333332999999998        1.0000000000000000        0.0000000000000000     
  0.22222222000000000        1.0000000000000000        0.0000000000000000     
  0.11111111000000000        1.0000000000000000        0.0000000000000000     
   0.0000000000000000       0.11111111000000000        0.0000000000000000     
   0.0000000000000000       0.22222222000000000        0.0000000000000000     
[...]
 CELL_DATA         354
 SCALARS V float
 LOOKUP_TABLE default
    0.33842973002515736904E-02
    0.46293685776190090717E-02
    0.24574081011010284921E-02
    0.22839763238625288705E-02
    0.39040959914369995597E-02
    0.43797218473402574693E-02
    0.72987515898528410735E-02
    0.49145299778357888487E-02
    0.11931986498449023704E-01
    0.15548777417675354109E-01
    0.19848404228039392971E-01
    0.18012272700803789310E-01
    0.19865660461435605266E-01
    0.19753420109083322936E-01
    0.19333558844824218215E-01
    0.19835306223756898891E-01
    0.18364489334113519303E-01
    0.15402964970129044697E-01
    0.92992505029516735887E-02
    0.13409291301461262469E-01
    0.67386098801663395566E-02
    0.72945202507449687090E-02
    0.12225192610635040105E-01
    0.92186534245259285636E-02
    0.12822492449412565760E-01
    0.11307729155233960106E-01
    0.81520356786015657491E-02
    0.10214022406633056772E-01
    0.45280989384751443166E-02
    0.46050654830728336708E-02
    0.37315569353034141672E-02
    0.42011489200876345890E-02
    0.34215397235803821606E-02
    0.30450229619855100072E-02
    0.26068352381402089962E-02
    0.28058365331842475415E-02
    0.25298923934402471267E-02
    0.25633219965283319912E-02
    0.27643591744003067831E-02
    0.26348938422474281820E-02
    0.27881740871320099748E-02
    0.28124456940324497889E-02
    0.28653715244489480485E-02
    0.28285428371289415492E-02
    0.28508758243418952025E-02
    0.26818052027187517204E-02
    0.25505573157914686669E-02
    0.25957757387662584898E-02
    0.24880014834100169785E-02
    0.23855197906986602002E-02
    0.22757734231682166456E-02
    0.22943197276149899198E-02
    0.35188148838109526914E-02
    0.35735514869150806355E-02
    0.38361565005571246836E-02
    0.36451859704841101800E-02
    0.38091324689645935167E-02
    0.37184484356059350693E-02
    0.35778048999126951107E-02
    0.36697880963571715904E-02
    0.34420718569301567147E-02
    0.31715858932481102300E-02
    0.27653324559821258755E-02
    0.29901669813065887699E-02
    0.26306652063131843317E-02
    0.24546521549408842171E-02
    0.22322716519396186910E-02
    0.23182077159626087240E-02
    0.18896916043282689646E-01
    0.19310222937505294033E-01
    0.19858032815216863920E-01
    0.19263984356305094425E-01
    0.20155955944870376090E-01
    0.20310658732838757223E-01
    0.18259702859509518297E-01
    0.15936648241259319253E-01
    0.17091261296363024352E-01
    0.19422019473326036787E-01
    0.80214415669023486632E-02
    0.10596674056152695712E-01
    0.52984669336851118043E-02
    0.68891014823282224061E-02
    0.11561402145805170158E-01
    0.53889007051744798604E-02
    0.19223982902802985717E-01
    0.14104321676962352020E-01
    0.10066198499657143944E-01
    0.18102184037125237243E-01
    0.18833957775990187167E-01
    0.16401393820464817835E-01
    0.12382786467193677635E-01
    0.60719810377489009598E-02
    0.54129162555765870588E-02
    0.43637393454558654621E-02
    0.41693216090755019776E-02
    0.46115576686516302277E-02
    0.65013032139128491826E-02
    0.15814883704084042870E-01
    0.20185402890456213831E-01
    0.17410846510112681917E-01
    0.19562134619849839978E-01
    0.15603516929674579941E-01
    0.18321046287471904473E-01
    0.17451469294755786454E-01
    0.17486362987668285784E-01
    0.14803409130963392920E-01
    0.14920030127913489620E-01
    0.18039508375394433526E-01
    0.71871132574634266285E-02
    0.67923666492261045025E-02
    0.43321335655590797672E-02
    0.61687568944839253626E-02
    0.47881448395813317950E-02
    0.46916123476642727572E-02
    0.14607947012645748630E-01
    0.54762743634164346915E-02
    0.88335770154298488138E-02
    0.13402379235935835827E-01
    0.13203693536818571219E-01
    0.53008124711532217041E-02
    0.96049162606134316778E-02
    0.33458606088463474504E-02
    0.37981619577503967708E-02
    0.30692731812097316484E-02
    0.40098901295548272650E-02
    0.43127218003101170513E-02
    0.30628427005172167985E-02
    0.32788651797843451283E-02
    0.58395300987113905183E-02
    0.10711614698887740593E-01
    0.48501208365103239822E-02
    0.13608535574432718135E-01
    0.10126251153638084201E-01
    0.47141730505115830852E-02
    0.67939632013609852629E-02
    0.18192076914879493077E-01
    0.19478096909692675653E-01
    0.15727245094824524041E-01
    0.19531662785913953689E-01
    0.20020286662177644299E-01
    0.17401178359693771081E-01
    0.16245443698636723162E-01
    0.28771484863079595587E-02
    0.27631132285858579084E-02
    0.25035244909625453853E-02
    0.32682974783116037348E-02
    0.31738054193158394579E-02
    0.25472945930258674221E-02
    0.25930904151658515019E-02
    0.19984115423210532803E-01
    0.17603210183013497797E-01
    0.17568582004683929582E-01
    0.19147459764494993706E-01
    0.17146083890048992304E-01
    0.19494910353351928289E-01
    0.17677642059901951810E-01
    0.19651837464415164436E-01
    0.20399813543573570851E-01
    0.17401630119651626677E-01
    0.19572452895556823743E-01
    0.11167641398874999722E-01
    0.18391216840825189149E-01
    0.16354038760015354032E-01
    0.14330937277070089284E-01
    0.13283867294590773200E-01
    0.36728015093849654751E-02
    0.43022225104618295674E-02
    0.36959060546270568887E-02
    0.41475597387479129843E-02
    0.44917049740068153152E-02
    0.16769633880854083186E-01
    0.20016992770417393888E-01
    0.18549571217926955069E-01
    0.18294764660212327334E-01
    0.19841456668173079736E-01
    0.58467996047861618691E-02
    0.94916821817162752573E-02
    0.11149424462668942881E-01
    0.53383396963068248040E-02
    0.78713368689453284965E-02
    0.19424773682069081115E-01
    0.18470389612700935378E-01
    0.19366191266029189610E-01
    0.17878326210846492983E-01
    0.19277734540273379349E-01
    0.52556827014188884847E-02
    0.99395923234181261796E-02
    0.65012933826059703460E-02
    0.63574799877890927902E-02
    0.96094893188422535191E-02
    0.17597168036161764393E-01
    0.19389655288658144694E-01
    0.17021590158028978429E-01
    0.19019371202712187507E-01
    0.17252774571033340639E-01
    0.35874237703388055058E-02
    0.46437532935054755961E-02
    0.39122653626820595718E-02
    0.38864291073546670952E-02
    0.44114047569247302055E-02
    0.33071144503032607123E-02
    0.31311409106973236809E-02
    0.34684160829095852206E-02
    0.30805728747520413728E-02
    0.36900079618960874434E-02
    0.11309518409098731628E-01
    0.18003053249836968586E-01
    0.14182307839416360973E-01
    0.19029592877190283640E-01
    0.18255824278491684931E-01
    0.10930898871757788876E-01
    0.99066063839419390979E-02
    0.15490600276767119842E-01
    0.14257577136940015328E-01
    0.16809675718490905277E-01
    0.19050321827938285907E-01
    0.16138685043263836794E-01
    0.16388908121339206686E-01
    0.19364943070542834508E-01
    0.10301253141663978957E-01
    0.10054279975888598397E-01
    0.99697287480211491117E-02
    0.14086235177425673881E-01
    0.51794023063424709727E-02
    0.10917631989449987778E-01
    0.30332736238258676577E-02
    0.32683696897199973966E-02
    0.39114466488797752786E-02
    0.38846295322627144922E-02
    0.38725122426494515762E-02
    0.43343432426464541946E-02
    0.45197994162124461442E-02
    0.53153965607853539271E-02
    0.74594255796534862310E-02
    0.13070179316949041143E-01
    0.12419015129394021801E-01
    0.15573240880443175310E-01
    0.18816535201786319109E-01
    0.19604225246407886579E-01
    0.18031171115104178276E-01
    0.18664921553182993452E-01
    0.11507463949472721693E-01
    0.51282423047794576179E-02
    0.53717961456158317551E-02
    0.19156396902515589187E-01
    0.20190534501695181491E-01
    0.38090936277995913334E-02
    0.32126869492771163023E-02
    0.29480346138287248127E-02
    0.61895826835640125815E-02
    0.45337924951585383340E-02
    0.43363537302122806549E-02
    0.14934192277768029711E-01
    0.15553361416941004214E-01
    0.64818260283045180115E-02
    0.19481801726747731418E-01
    0.15363286158232500322E-01
    0.14773022568206412714E-01
    0.47029621333211481596E-02
    0.47849246442282326874E-02
    0.34757995662198261366E-02
    0.19522350370727106078E-01
    0.19790777829375071073E-01
    0.18371644166757475358E-01
    0.33861716719938176820E-02
    0.32823994459868334819E-02
    0.26679346494234332764E-02
    0.31545674307260403862E-02
    0.28310783354501714397E-02
    0.25349222446437516543E-02
    0.20301329383376975901E-01
    0.17597875584704672502E-01
    0.18805096184768301665E-01
    0.19437768741923260041E-01
    0.75413764259287755648E-02
    0.19074962548627234782E-01
    0.14438032053368795443E-01
    0.13934423682705190592E-01
    0.45668847950698738744E-02
    0.11199860034324455454E-01
    0.91233446594769160298E-02
    0.51014910270610830736E-02
    0.19059092735831714704E-01
    0.17769778360984839205E-01
    0.13316923815019969524E-01
    0.19129647173907290969E-01
    0.18402606217212152950E-01
    0.41371971696996514764E-02
    0.46592721276488922172E-02
    0.27629401003196616196E-02
    0.29267463732323660552E-02
    0.14553387337472288923E-01
    0.12031569209153531938E-01
    0.23214117245272227266E-02
    0.23575552297257079681E-02
    0.14782968012722431245E-01
    0.48716289389516788041E-02
    0.48814433651761359248E-02
    0.18972717370083436172E-01
    0.37090196918012842582E-02
    0.13846339753913621679E-01
    0.15674477583923315110E-01
    0.38929612137172690464E-02
    0.19419008489266045836E-01
    0.14621777665968678506E-01
    0.18678590675744306121E-01
    0.10988711067309796590E-01
    0.18625723505125160728E-01
    0.37665896266981710970E-02
    0.41833198144381978853E-02
    0.83663662028213257871E-02
    0.16620746166133446020E-01
    0.19770687429629042742E-01
    0.52224655225954069726E-02
    0.20559763976460223439E-01
    0.17295166290971955569E-01
    0.11292978178794425836E-01
    0.47037338194996624469E-02
    0.33590325079034481087E-02
    0.30163074043285014250E-02
    0.48822759395148185302E-02
    0.43811157226933423320E-02
    0.24032076059540600187E-02
    0.23363552241128849631E-02
    0.22614368184265504040E-02
    0.22078090754847523765E-02
    0.43035322870300842663E-02
    0.70660233733633222991E-02
    0.10428887659031342919E-01
    0.12325153587593905974E-01
    0.12357238094203566378E-01
    0.11706343907964343598E-01
    0.91566733203748799930E-02
    0.54760117144706469544E-02
    0.85611241176109971474E-02
    0.69971155938340686559E-02
    0.46476955769418669753E-02
    0.39102208886006607769E-02
    0.32838753185862237099E-02
    0.27909615529045465887E-02
    0.24405905276678411392E-02
    0.25294828654737868193E-02
    0.25732222352315963637E-02
    0.25662747525638978166E-02
    0.24840957440873988674E-02
    0.23823150996557106336E-02
    0.23041195404227944946E-02
    0.32190652504909236971E-02
    0.33100308880854474591E-02
    0.32480816854401593774E-02
    0.30839138769946398619E-02
    0.28121363598352954773E-02
    0.25324206470325313564E-02
    0.23343077221670187685E-02
