# vtk DataFile Version 3.0
LAPLACIEN  2D
ASCII
DATASET UNSTRUCTURED_GRID
 POINTS         391  float
  0.50371505999999999       0.50367786999999997        0.0000000000000000     
  0.29013556000000001       0.29014535000000002        0.0000000000000000     
  0.70165584999999997       0.71206597999999999        0.0000000000000000     
  0.70304188999999995       0.30176619999999998        0.0000000000000000     
  0.30920671999999999       0.71149227999999998        0.0000000000000000     
  0.79044983999999996       0.49884783999999999        0.0000000000000000     
  0.49102621000000002       0.20968644000000000        0.0000000000000000     
  0.49912957000000002       0.77208717000000004        0.0000000000000000     
  0.21724072999999999       0.48989389000000000        0.0000000000000000     
  0.83255933999999998       0.83046598000000005        0.0000000000000000     
  0.16646774000000000       0.17015694000000001        0.0000000000000000     
  0.83054514999999995       0.16736480000000001        0.0000000000000000     
  0.16953130999999999       0.83265739000000005        0.0000000000000000     
  0.42166445000000002       0.36345201999999999        0.0000000000000000     
  0.64462200999999997       0.56347807999999999        0.0000000000000000     
  0.35324633999999999       0.56311191000000005        0.0000000000000000     
  0.65456411000000003       0.84856860999999995        0.0000000000000000     
  0.35141477999999998       0.15563974000000000        0.0000000000000000     
  0.15290967000000000       0.35206625000000003        0.0000000000000000     
  0.82942241000000005       0.34936866000000000        0.0000000000000000     
  0.84390527000000004       0.64441694999999999        0.0000000000000000     
  0.63699174999999997       0.14284276000000001        0.0000000000000000     
  0.15620682999999999       0.64648446999999998        0.0000000000000000     
  0.36426062999999997       0.85756310999999996        0.0000000000000000     
  0.63489340999999999       0.40519052000000000        0.0000000000000000     
  0.52518872999999999       0.65957078000000002        0.0000000000000000     
  0.32158959999999998       0.42298103999999997        0.0000000000000000     
  0.58861710000000000       0.31711036999999997        0.0000000000000000     
  0.42078418000000001       0.69497151999999995        0.0000000000000000     
  0.48608786999999998       0.89334152000000000        0.0000000000000000     
   9.7084320000000002E-002  0.50000000000000000        0.0000000000000000     
  0.90291568000000000       0.50000000000000000        0.0000000000000000     
  0.51392453000000005       0.10668648999999999        0.0000000000000000     
  0.59792566999999996       0.73122754000000001        0.0000000000000000     
  0.74510058999999995       0.41124730999999998        0.0000000000000000     
  0.73212551999999997       0.90191560000000004        0.0000000000000000     
   9.7784830000000003E-002  0.26957329000000002        0.0000000000000000     
  0.26711221000000002        9.8671499999999995E-002   0.0000000000000000     
  0.90191560000000004       0.26787448000000003        0.0000000000000000     
  0.90118569000000004       0.73039821000000005        0.0000000000000000     
  0.73122947000000005        9.8017859999999998E-002   0.0000000000000000     
   9.8084400000000002E-002  0.73212551999999997        0.0000000000000000     
  0.26957329000000002       0.90221516999999996        0.0000000000000000     
  0.39283522999999998       0.25360379000000000        0.0000000000000000     
  0.74480864000000002       0.60495284999999999        0.0000000000000000     
  0.25505132000000003       0.60593640999999998        0.0000000000000000     
  0.52159297999999998       0.40671636000000000        0.0000000000000000     
  0.40768852000000000       0.47699891000000000        0.0000000000000000     
   9.1467049999999994E-002   9.1876959999999994E-002   0.0000000000000000     
  0.90842484999999995       0.90819225000000003        0.0000000000000000     
  0.90820104999999995        9.1566729999999999E-002   0.0000000000000000     
   9.1807449999999999E-002  0.90843574000000005        0.0000000000000000     
  0.27098960000000000       0.20527094000000001        0.0000000000000000     
  0.73457293999999995       0.79835387000000002        0.0000000000000000     
  0.79817773000000003       0.25713470999999999        0.0000000000000000     
  0.20747797000000001       0.72863946000000002        0.0000000000000000     
  0.20175195000000001       0.27583914999999998        0.0000000000000000     
  0.79603889000000005       0.72159035000000005        0.0000000000000000     
  0.71761666000000002       0.19748431999999999        0.0000000000000000     
  0.28462607000000001       0.80251899999999998        0.0000000000000000     
  0.69134598999999997       0.49261972999999998        0.0000000000000000     
  0.44720578999999999       0.58582935999999997        0.0000000000000000     
  0.24242269999999999       0.37228174000000003        0.0000000000000000     
  0.38265623999999998       0.93072131999999996        0.0000000000000000     
  0.60971754000000000       0.91988369000000003        0.0000000000000000     
   7.9163609999999995E-002  0.60979116000000000        0.0000000000000000     
  0.92010649000000000       0.61081183999999999        0.0000000000000000     
  0.61954008999999999        7.1530830000000004E-002   0.0000000000000000     
  0.91882012999999996       0.38917363999999999        0.0000000000000000     
  0.39086346000000000        8.0652249999999995E-002   0.0000000000000000     
   7.9183480000000001E-002  0.38966213000000000        0.0000000000000000     
  0.59114111999999996       0.49294315000000000        0.0000000000000000     
  0.63337980999999999       0.64485914000000000        0.0000000000000000     
  0.50012352000000004       0.29676539000000002        0.0000000000000000     
  0.82552601000000003       0.92753492000000004        0.0000000000000000     
  0.92774772999999999       0.82498556999999995        0.0000000000000000     
   7.1970870000000006E-002  0.17510291000000000        0.0000000000000000     
  0.17422821999999999        7.2635640000000001E-002   0.0000000000000000     
  0.82510813000000005        7.2134840000000006E-002   0.0000000000000000     
  0.92754665000000003       0.17446275999999999        0.0000000000000000     
  0.17501022999999999       0.92789951999999998        0.0000000000000000     
   7.2464680000000004E-002  0.82554053000000005        0.0000000000000000     
  0.30731587999999999       0.50885354999999999        0.0000000000000000     
  0.59033407999999998       0.22171178999999999        0.0000000000000000     
  0.40109191999999999       0.78725542000000004        0.0000000000000000     
  0.35420917000000002       0.63754104000000000        0.0000000000000000     
  0.15983976999999999       0.56665573000000002        0.0000000000000000     
  0.84108459999999996       0.56757886999999996        0.0000000000000000     
  0.83902096000000004       0.43344338999999998        0.0000000000000000     
  0.43230028999999998       0.16004268999999999        0.0000000000000000     
  0.57536027999999995       0.83041363999999995        0.0000000000000000     
  0.15771898000000001       0.42747892999999998        0.0000000000000000     
  0.34021692999999997       0.34221559000000001        0.0000000000000000     
  0.56002271999999997       0.57501117999999996        0.0000000000000000     
  0.65344329000000001       0.78147597999999996        0.0000000000000000     
   0.0000000000000000        0.0000000000000000        0.0000000000000000     
   1.0000000000000000        0.0000000000000000        0.0000000000000000     
   1.0000000000000000        1.0000000000000000        0.0000000000000000     
   0.0000000000000000        1.0000000000000000        0.0000000000000000     
  0.11111111000000000        0.0000000000000000        0.0000000000000000     
  0.22222222000000000        0.0000000000000000        0.0000000000000000     
  0.33333332999999998        0.0000000000000000        0.0000000000000000     
  0.44444444000000000        0.0000000000000000        0.0000000000000000     
  0.55555555999999995        0.0000000000000000        0.0000000000000000     
  0.66666667000000002        0.0000000000000000        0.0000000000000000     
  0.77777777999999997        0.0000000000000000        0.0000000000000000     
  0.88888889000000004        0.0000000000000000        0.0000000000000000     
   1.0000000000000000       0.11111111000000000        0.0000000000000000     
   1.0000000000000000       0.22222222000000000        0.0000000000000000     
   1.0000000000000000       0.33333332999999998        0.0000000000000000     
   1.0000000000000000       0.44444444000000000        0.0000000000000000     
   1.0000000000000000       0.55555555999999995        0.0000000000000000     
   1.0000000000000000       0.66666667000000002        0.0000000000000000     
   1.0000000000000000       0.77777777999999997        0.0000000000000000     
   1.0000000000000000       0.88888889000000004        0.0000000000000000     
  0.88888889000000004        1.0000000000000000        0.0000000000000000     
  0.77777777999999997        1.0000000000000000        0.0000000000000000     
  0.66666667000000002        1.0000000000000000        0.0000000000000000     
  0.55555555999999995        1.0000000000000000        0.0000000000000000     
  0.44444444000000000        1.0000000000000000        0.0000000000000000     
  0.33333332999999998        1.0000000000000000        0.0000000000000000     
  0.22222222000000000        1.0000000000000000        0.0000000000000000     
  0.11111111000000000        1.0000000000000000        0.0000000000000000     
   0.0000000000000000       0.11111111000000000        0.0000000000000000     
   0.0000000000000000       0.22222222000000000        0.0000000000000000     
[...]
 CELL_DATA         354
 SCALARS V float
 LOOKUP_TABLE default
    0.30851483687761555030E-01
    0.40781926244524084602E-01
    0.22326559689413407600E-01
    0.18622587628006143090E-01
    0.33610950293890794194E-01
    0.36268240261355423615E-01
    0.43314023407404478316E-01
    0.39490594658310895770E-01
    0.46979889387664501565E-01
    0.50854911156239711312E-01
    0.58524108469673999378E-01
    0.54337312188469176488E-01
    0.60165830430540474805E-01
    0.59180646190730996914E-01
    0.56935867957668619133E-01
    0.58292261419186461313E-01
    0.54233247245315238660E-01
    0.50198822686536206938E-01
    0.43970750450420086064E-01
    0.46851395713394194953E-01
    0.42662330231498221678E-01
    0.43880703008996678471E-01
    0.47124299294528063098E-01
    0.45331052982634928439E-01
    0.47490181272403807211E-01
    0.46471616946421323568E-01
    0.43924221739594079827E-01
    0.45354102427890841120E-01
    0.41820128959311878014E-01
    0.38794083521446205698E-01
    0.33564078512918649189E-01
    0.36222975968838923289E-01
    0.30995030610545749178E-01
    0.28282625348110521785E-01
    0.24229753435692787111E-01
    0.26042189320285354104E-01
    0.23245557423219872367E-01
    0.23873989417665702345E-01
    0.25943219637534532113E-01
    0.24751344922334012760E-01
    0.26557375032304268020E-01
    0.26676688982363902514E-01
    0.27200534109365813451E-01
    0.26853084835925883356E-01
    0.26793892594452365513E-01
    0.25509695986455124816E-01
    0.24145965933271777704E-01
    0.24718587963200921997E-01
    0.23135509621204117942E-01
    0.21674928436345976268E-01
    0.19677967575335238853E-01
    0.20544518062714758194E-01
    0.31868888227645920941E-01
    0.32402253743517316076E-01
    0.34300148944098871051E-01
    0.33191059057596568327E-01
    0.34492608225678456080E-01
    0.33807108987230827246E-01
    0.32617424858372497110E-01
    0.33220372024990271753E-01
    0.31448989419630431208E-01
    0.29592060214845047894E-01
    0.26406500722383822316E-01
    0.28029555026117796562E-01
    0.24716898961826109377E-01
    0.22791941323710599582E-01
    0.19991159184829986051E-01
    0.21232408223402988307E-01
    0.70506955995308484564E-01
    0.63446781151079906236E-01
    0.59159517485067383835E-01
    0.66782786882515779436E-01
    0.61188052898189883300E-01
    0.61160119543660282360E-01
    0.54716402918008125167E-01
    0.51451059260505360715E-01
    0.53275175718397994873E-01
    0.58824688929244056679E-01
    0.42557409107501539824E-01
    0.45878187601990985667E-01
    0.38695252049361125724E-01
    0.40884686039532512625E-01
    0.46120848142735253183E-01
    0.39848640608949222053E-01
    0.68635604185576071234E-01
    0.79859773064452327374E-01
    0.87695846238727975797E-01
    0.72592275787007082277E-01
    0.70347692348279422525E-01
    0.75330342023542204433E-01
    0.83586250672195896994E-01
    0.40017120900921007709E-01
    0.39020429856253091572E-01
    0.34945458938572773744E-01
    0.34191751099325255747E-01
    0.36502828789294693157E-01
    0.41061643063145962518E-01
    0.51459001008301252789E-01
    0.61398539757870990163E-01
    0.53533833471166789031E-01
    0.59899355554642846888E-01
    0.51205928718964253965E-01
    0.56119854969292608249E-01
    0.72962466642598325373E-01
    0.73612788674985732418E-01
    0.81471004615116263126E-01
    0.81419382417860036716E-01
    0.71551055866893253921E-01
    0.43184759820194665303E-01
    0.40756836232560517130E-01
    0.34328063155963338404E-01
    0.40472485413678718769E-01
    0.36808230259326037148E-01
    0.36418435777674541820E-01
    0.50221025360311616348E-01
    0.39507172067891498102E-01
    0.42760637909528873002E-01
    0.47431891202404950769E-01
    0.47439120916231064529E-01
    0.40124903961028142441E-01
    0.42724058284777842454E-01
    0.30020988793630125346E-01
    0.32703108056060761766E-01
    0.27827114117929475229E-01
    0.33173749821234672919E-01
    0.34789684054349553910E-01
    0.28186505058523627504E-01
    0.29628506703568920772E-01
    0.40237400289848734847E-01
    0.45012150411836822361E-01
    0.38115204856707329828E-01
    0.47237395962492802204E-01
    0.44600570445230150463E-01
    0.38203194844859178492E-01
    0.40813074844143544528E-01
    0.54908366446360351576E-01
    0.59128216796865903926E-01
    0.51015165677484847206E-01
    0.60728022533741897460E-01
    0.63680438846207096382E-01
    0.53924877254159064854E-01
    0.51782765413986929504E-01
    0.26890586197201121060E-01
    0.26079893772839334021E-01
    0.23386064584742884132E-01
    0.29112057080034711709E-01
    0.28663014196067211625E-01
    0.24100497983584923817E-01
    0.24551872249701664486E-01
    0.63365435920027510242E-01
    0.70487363537822089743E-01
    0.74957875331082279846E-01
    0.66446034408184723175E-01
    0.77828134659142664264E-01
    0.65753388812781227157E-01
    0.54584658640383657002E-01
    0.60826564251144452089E-01
    0.62782742615337866487E-01
    0.54011388136149210415E-01
    0.58087328366446630556E-01
    0.45738501057312294651E-01
    0.54868690660069059650E-01
    0.51825538562482571792E-01
    0.50213651505968168176E-01
    0.47166906851439531490E-01
    0.31160198865427493620E-01
    0.34004692961313559563E-01
    0.31112920622403214543E-01
    0.33750248418042347320E-01
    0.35343102640683216054E-01
    0.53144536692588305316E-01
    0.62604270714006232668E-01
    0.55731708261083298672E-01
    0.57162052730462376005E-01
    0.62463238929228850904E-01
    0.40417775567102805223E-01
    0.44519601369472742991E-01
    0.45876075621282423611E-01
    0.39331088275989994907E-01
    0.42038487828382049838E-01
    0.64332810008181778860E-01
    0.56460523802191325826E-01
    0.62687046540098226299E-01
    0.54824796546579554479E-01
    0.58123423651260823497E-01
    0.38269704121986956868E-01
    0.45493689643749786466E-01
    0.40627868517451523611E-01
    0.40862021401456199987E-01
    0.44724698220660115411E-01
    0.70280294596470158086E-01
    0.66348385609902665871E-01
    0.71860241477144037869E-01
    0.66946438563306315261E-01
    0.77235660312950940587E-01
    0.30596414178877373580E-01
    0.36733106788048280889E-01
    0.32987828463673901647E-01
    0.32129964327810935087E-01
    0.35310762651007646107E-01
    0.30351519199220237943E-01
    0.28172585596891931703E-01
    0.30696894435463754208E-01
    0.28400209579729010501E-01
    0.32493903455714907846E-01
    0.86767474157196655682E-01
    0.73172816665251147472E-01
    0.79863451764484408302E-01
    0.70994610083950762669E-01
    0.73443809562192402529E-01
    0.45561342271470628429E-01
    0.45081219775289886609E-01
    0.50751039645749236595E-01
    0.49253907974212661480E-01
    0.52819325718988043017E-01
    0.59132917645078358904E-01
    0.53200389029230153726E-01
    0.53236638578175059233E-01
    0.59202654322901920869E-01
    0.87333972793448857996E-01
    0.91143604108114978368E-01
    0.91529967314576687887E-01
    0.47684611587939268462E-01
    0.38873403918143631386E-01
    0.43815841904304632382E-01
    0.28176856509858221739E-01
    0.29528763407521155249E-01
    0.33017195223314969865E-01
    0.32553737494500828431E-01
    0.32898700015984355671E-01
    0.35703445450591154986E-01
    0.36270876173881180793E-01
    0.38572657363793651231E-01
    0.43138402945306332514E-01
    0.48319977229903832150E-01
    0.47226528895537751851E-01
    0.51607710156179945060E-01
    0.64757135543712665560E-01
    0.61010404104391527391E-01
    0.76024735271951707216E-01
    0.66770671235732187432E-01
    0.45915583363720570420E-01
    0.38337257789307570277E-01
    0.39739820789983594518E-01
    0.66089030860833716807E-01
    0.60984875615742790977E-01
    0.32038826169845859015E-01
    0.28891033529118478190E-01
    0.27381443918440776658E-01
    0.42420782242482794888E-01
    0.37087316836181549728E-01
    0.36589523257191641781E-01
    0.50030302768644764611E-01
    0.51896394402563855719E-01
    0.43024962297217528295E-01
    0.58376313191189049823E-01
    0.51199374904707911638E-01
    0.50061670701186583576E-01
    0.36455751545076291176E-01
    0.37054859354680676209E-01
    0.30959825396480351867E-01
    0.65585710499606375556E-01
    0.62007279855478839026E-01
    0.55361397594545717904E-01
    0.29751716104324147510E-01
    0.29157081740815250781E-01
    0.25101357538876677145E-01
    0.28420700515138296732E-01
    0.26283272478037605913E-01
    0.23992990942330934268E-01
    0.59633784993632622806E-01
    0.76501627028769461636E-01
    0.67654513654105449816E-01
    0.64753467715480336753E-01
    0.43960772922225152537E-01
    0.57046973661682945367E-01
    0.50044086619525827986E-01
    0.48804429427146980847E-01
    0.36314812245273317415E-01
    0.45858727200250901102E-01
    0.42864142410673031214E-01
    0.38956716650900322096E-01
    0.69541426063128075619E-01
    0.73367861569535799959E-01
    0.83046277729487014141E-01
    0.57268295028843764494E-01
    0.55259056635625317111E-01
    0.34982065447788930623E-01
    0.37076650265238278448E-01
    0.25636221086254629142E-01
    0.26799814865362748401E-01
    0.48735152148793453586E-01
    0.47076337574843460376E-01
    0.21797781547992660378E-01
    0.22165550901538003115E-01
    0.49553246967338343554E-01
    0.36926040959491465698E-01
    0.36694452305918216772E-01
    0.67702322677305609711E-01
    0.31647560690220358226E-01
    0.48663839065806568929E-01
    0.78426835445205927977E-01
    0.33403603896280241459E-01
    0.66596458240142777929E-01
    0.48393521827713829875E-01
    0.55725178685055089256E-01
    0.45335504887452422740E-01
    0.55868699102843991100E-01
    0.31730101730263221560E-01
    0.33946054583379889347E-01
    0.43713697543445707849E-01
    0.52901503138454000763E-01
    0.61585884800970644437E-01
    0.38771962600472345550E-01
    0.62637461747367478848E-01
    0.53676397063499366180E-01
    0.87608737138268735767E-01
    0.36423219466145781431E-01
    0.30330483566978698462E-01
    0.28812181744340342043E-01
    0.39502670412006953005E-01
    0.38380304667067086100E-01
    0.21814554513660225354E-01
    0.20952440218044383891E-01
    0.17672512403577270157E-01
    0.17947501516618669104E-01
    0.36350683499823441269E-01
    0.43084892565319124480E-01
    0.49504475113433796252E-01
    0.54378225621745768237E-01
    0.54953266485378626793E-01
    0.51965363124936242434E-01
    0.45990423824100734596E-01
    0.41749693902800491530E-01
    0.43609801772151061960E-01
    0.42741900461678507261E-01
    0.39903795049180415533E-01
    0.35494869338424848981E-01
    0.30722877783910598759E-01
    0.25985383486667516101E-01
    0.22785844115403089405E-01
    0.24282164112887184154E-01
    0.24883284865865058777E-01
    0.24798678850175864818E-01
    0.23626265622655493598E-01
    0.22045915441744588087E-01
    0.19878524197302023524E-01
    0.30684000788186484299E-01
    0.31723905667741539305E-01
    0.31225489844135000117E-01
    0.29693602616947201156E-01
    0.27086755085253762937E-01
    0.24098841377076643533E-01
    0.20898327277475772790E-01
