# vtk DataFile Version 3.0
LAPLACIEN  2D
ASCII
DATASET UNSTRUCTURED_GRID
 POINTS         391  float
  0.50371505999999999       0.50367786999999997        0.0000000000000000     
  0.29013556000000001       0.29014535000000002        0.0000000000000000     
  0.70165584999999997       0.71206597999999999        0.0000000000000000     
  0.70304188999999995       0.30176619999999998        0.0000000000000000     
  0.30920671999999999       0.71149227999999998        0.0000000000000000     
  0.79044983999999996       0.49884783999999999        0.0000000000000000     
  0.49102621000000002       0.20968644000000000        0.0000000000000000     
  0.49912957000000002       0.77208717000000004        0.0000000000000000     
  0.21724072999999999       0.48989389000000000        0.0000000000000000     
  0.83255933999999998       0.83046598000000005        0.0000000000000000     
  0.16646774000000000       0.17015694000000001        0.0000000000000000     
  0.83054514999999995       0.16736480000000001        0.0000000000000000     
  0.16953130999999999       0.83265739000000005        0.0000000000000000     
  0.42166445000000002       0.36345201999999999        0.0000000000000000     
  0.64462200999999997       0.56347807999999999        0.0000000000000000     
  0.35324633999999999       0.56311191000000005        0.0000000000000000     
  0.65456411000000003       0.84856860999999995        0.0000000000000000     
  0.35141477999999998       0.15563974000000000        0.0000000000000000     
  0.15290967000000000       0.35206625000000003        0.0000000000000000     
  0.82942241000000005       0.34936866000000000        0.0000000000000000     
  0.84390527000000004       0.64441694999999999        0.0000000000000000     
  0.63699174999999997       0.14284276000000001        0.0000000000000000     
  0.15620682999999999       0.64648446999999998        0.0000000000000000     
  0.36426062999999997       0.85756310999999996        0.0000000000000000     
  0.63489340999999999       0.40519052000000000        0.0000000000000000     
  0.52518872999999999       0.65957078000000002        0.0000000000000000     
  0.32158959999999998       0.42298103999999997        0.0000000000000000     
  0.58861710000000000       0.31711036999999997        0.0000000000000000     
  0.42078418000000001       0.69497151999999995        0.0000000000000000     
  0.48608786999999998       0.89334152000000000        0.0000000000000000     
   9.7084320000000002E-002  0.50000000000000000        0.0000000000000000     
  0.90291568000000000       0.50000000000000000        0.0000000000000000     
  0.51392453000000005       0.10668648999999999        0.0000000000000000     
  0.59792566999999996       0.73122754000000001        0.0000000000000000     
  0.74510058999999995       0.41124730999999998        0.0000000000000000     
  0.73212551999999997       0.90191560000000004        0.0000000000000000     
   9.7784830000000003E-002  0.26957329000000002        0.0000000000000000     
  0.26711221000000002        9.8671499999999995E-002   0.0000000000000000     
  0.90191560000000004       0.26787448000000003        0.0000000000000000     
  0.90118569000000004       0.73039821000000005        0.0000000000000000     
  0.73122947000000005        9.8017859999999998E-002   0.0000000000000000     
   9.8084400000000002E-002  0.73212551999999997        0.0000000000000000     
  0.26957329000000002       0.90221516999999996        0.0000000000000000     
  0.39283522999999998       0.25360379000000000        0.0000000000000000     
  0.74480864000000002       0.60495284999999999        0.0000000000000000     
  0.25505132000000003       0.60593640999999998        0.0000000000000000     
  0.52159297999999998       0.40671636000000000        0.0000000000000000     
  0.40768852000000000       0.47699891000000000        0.0000000000000000     
   9.1467049999999994E-002   9.1876959999999994E-002   0.0000000000000000     
  0.90842484999999995       0.90819225000000003        0.0000000000000000     
  0.90820104999999995        9.1566729999999999E-002   0.0000000000000000     
   9.1807449999999999E-002  0.90843574000000005        0.0000000000000000     
  0.27098960000000000       0.20527094000000001        0.0000000000000000     
  0.73457293999999995       0.79835387000000002        0.0000000000000000     
  0.79817773000000003       0.25713470999999999        0.0000000000000000     
  0.20747797000000001       0.72863946000000002        0.0000000000000000     
  0.20175195000000001       0.27583914999999998        0.0000000000000000     
  0.79603889000000005       0.72159035000000005        0.0000000000000000     
  0.71761666000000002       0.19748431999999999        0.0000000000000000     
  0.28462607000000001       0.80251899999999998        0.0000000000000000     
  0.69134598999999997       0.49261972999999998        0.0000000000000000     
  0.44720578999999999       0.58582935999999997        0.0000000000000000     
  0.24242269999999999       0.37228174000000003        0.0000000000000000     
  0.38265623999999998       0.93072131999999996        0.0000000000000000     
  0.60971754000000000       0.91988369000000003        0.0000000000000000     
   7.9163609999999995E-002  0.60979116000000000        0.0000000000000000     
  0.92010649000000000       0.61081183999999999        0.0000000000000000     
  0.61954008999999999        7.1530830000000004E-002   0.0000000000000000     
  0.91882012999999996       0.38917363999999999        0.0000000000000000     
  0.39086346000000000        8.0652249999999995E-002   0.0000000000000000     
   7.9183480000000001E-002  0.38966213000000000        0.0000000000000000     
  0.59114111999999996       0.49294315000000000        0.0000000000000000     
  0.63337980999999999       0.64485914000000000        0.0000000000000000     
  0.50012352000000004       0.29676539000000002        0.0000000000000000     
  0.82552601000000003       0.92753492000000004        0.0000000000000000     
  0.92774772999999999       0.82498556999999995        0.0000000000000000     
   7.1970870000000006E-002  0.17510291000000000        0.0000000000000000     
  0.17422821999999999        7.2635640000000001E-002   0.0000000000000000     
  0.82510813000000005        7.2134840000000006E-002   0.0000000000000000     
  0.92754665000000003       0.17446275999999999        0.0000000000000000     
  0.17501022999999999       0.92789951999999998        0.0000000000000000     
   7.2464680000000004E-002  0.82554053000000005        0.0000000000000000     
  0.30731587999999999       0.50885354999999999        0.0000000000000000     
  0.59033407999999998       0.22171178999999999        0.0000000000000000     
  0.40109191999999999       0.78725542000000004        0.0000000000000000     
  0.35420917000000002       0.63754104000000000        0.0000000000000000     
  0.15983976999999999       0.56665573000000002        0.0000000000000000     
  0.84108459999999996       0.56757886999999996        0.0000000000000000     
  0.83902096000000004       0.43344338999999998        0.0000000000000000     
  0.43230028999999998       0.16004268999999999        0.0000000000000000     
  0.57536027999999995       0.83041363999999995        0.0000000000000000     
  0.15771898000000001       0.42747892999999998        0.0000000000000000     
  0.34021692999999997       0.34221559000000001        0.0000000000000000     
  0.56002271999999997       0.57501117999999996        0.0000000000000000     
  0.65344329000000001       0.78147597999999996        0.0000000000000000     
   0.0000000000000000        0.0000000000000000        0.0000000000000000     
   1.0000000000000000        0.0000000000000000        0.0000000000000000     
   1.0000000000000000        1.0000000000000000        0.0000000000000000     
   0.0000000000000000        1.0000000000000000        0.0000000000000000     
  0.11111111000000000        0.0000000000000000        0.0000000000000000     
  0.22222222000000000        0.0000000000000000        0.0000000000000000     
  0.33333332999999998        0.0000000000000000        0.0000000000000000     
  0.44444444000000000        0.0000000000000000        0.0000000000000000     
  0.55555555999999995        0.0000000000000000        0.0000000000000000     
  0.66666667000000002        0.0000000000000000        0.0000000000000000     
  0.77777777999999997        0.0000000000000000        0.0000000000000000     
  0.88888889000000004        0.0000000000000000        0.0000000000000000     
   1.0000000000000000       0.11111111000000000        0.0000000000000000     
   1.0000000000000000       0.22222222000000000        0.0000000000000000     
   1.0000000000000000       0.33333332999999998        0.0000000000000000     
   1.0000000000000000       0.44444444000000000        0.0000000000000000     
   1.0000000000000000       0.55555555999999995        0.0000000000000000     
   1.0000000000000000       0.66666667000000002        0.0000000000000000     
   1.0000000000000000       0.77777777999999997        0.0000000000000000     
   1.0000000000000000       0.88888889000000004        0.0000000000000000     
  0.88888889000000004        1.0000000000000000        0.0000000000000000     
  0.77777777999999997        1.0000000000000000        0.0000000000000000     
  0.66666667000000002        1.0000000000000000        0.0000000000000000     
  0.55555555999999995        1.0000000000000000        0.0000000000000000     
  0.44444444000000000        1.0000000000000000        0.0000000000000000     
  0.33333332999999998        1.0000000000000000        0.0000000000000000     
  0.22222222000000000        1.0000000000000000        0.0000000000000000     
  0.11111111000000000        1.0000000000000000        0.0000000000000000     
   0.0000000000000000       0.11111111000000000        0.0000000000000000     
   0.0000000000000000       0.22222222000000000        0.0000000000000000     
[...]
 CELL_DATA         354
 SCALARS V float
 LOOKUP_TABLE default
    0.30851557866239508882E-01
    0.40782025366229698871E-01
    0.22326615155273211999E-01
    0.18622635644257940629E-01
    0.33610961829692254099E-01
    0.36268274507174111387E-01
    0.43314122188718717776E-01
    0.39490654603771192799E-01
    0.46979991615158860074E-01
    0.50855000963224192279E-01
    0.58524255357749764561E-01
    0.54337443842791342818E-01
    0.60165936598586856887E-01
    0.59180769018183525254E-01
    0.56936003709156718378E-01
    0.58292399001210193354E-01
    0.54233366703467081327E-01
    0.50198904568660634995E-01
    0.43970779867754904158E-01
    0.46851450637017288958E-01
    0.42662395449064319242E-01
    0.43880772072135761086E-01
    0.47124400421806052208E-01
    0.45331141580902865884E-01
    0.47490321592950940355E-01
    0.46471744601876210923E-01
    0.43924315602890819099E-01
    0.45354199105104187062E-01
    0.41820231177078677487E-01
    0.38794169000210293463E-01
    0.33564150573073339712E-01
    0.36223042831172148903E-01
    0.30995104934889401022E-01
    0.28282674375575779513E-01
    0.24229768289534932973E-01
    0.26042217850723387018E-01
    0.23245600432152020709E-01
    0.23874030759950891356E-01
    0.25943284448063087116E-01
    0.24751399076735375315E-01
    0.26557461012966826486E-01
    0.26676767009056162605E-01
    0.27200622546625030651E-01
    0.26853161476297071619E-01
    0.26793966635296762036E-01
    0.25509761278326825717E-01
    0.24146036570304670738E-01
    0.24718658720976970089E-01
    0.23135570283019820520E-01
    0.21674975244684296233E-01
    0.19677997699034589785E-01
    0.20544551092876835868E-01
    0.31868951297645102538E-01
    0.32402310728055418176E-01
    0.34300229592395765910E-01
    0.33191131697636780395E-01
    0.34492715997285192109E-01
    0.33807206242621609671E-01
    0.32617504199096529482E-01
    0.33220449840191512703E-01
    0.31449073028201456059E-01
    0.29592131676655100692E-01
    0.26406572979128510592E-01
    0.28029620389948370351E-01
    0.24716962128137946741E-01
    0.22791985177462961709E-01
    0.19991179642297761399E-01
    0.21232436856282909526E-01
    0.70506972284721233790E-01
    0.63446759332064603387E-01
    0.59159426918862424716E-01
    0.66782787590043593551E-01
    0.61187978479907673135E-01
    0.61160159951476208984E-01
    0.54716411061089181844E-01
    0.51451014877855985596E-01
    0.53275116345112123739E-01
    0.58824654505643891866E-01
    0.42557445856063649825E-01
    0.45878228387657704612E-01
    0.38695248692425694703E-01
    0.40884704135100480293E-01
    0.46120842088475215437E-01
    0.39848701330728479586E-01
    0.68635574710884716954E-01
    0.79859598316251112493E-01
    0.87695271540132430088E-01
    0.72592247795020881096E-01
    0.70347649447740870365E-01
    0.75330351946902601723E-01
    0.83585950580808907051E-01
    0.40017066656441904748E-01
    0.39020405051791703932E-01
    0.34945452974155605252E-01
    0.34191754660842114955E-01
    0.36502824204889920690E-01
    0.41061578320810740439E-01
    0.51458968598120269355E-01
    0.61398541628186330266E-01
    0.53533833758473689524E-01
    0.59899305218389015115E-01
    0.51205986398388483871E-01
    0.56119815033835410145E-01
    0.72962372920999440939E-01
    0.73612682342364316179E-01
    0.81470927585694283279E-01
    0.81419325732576375287E-01
    0.71551053119605884101E-01
    0.43184747946616995617E-01
    0.40756850901749512583E-01
    0.34328012678000792424E-01
    0.40472495673504027547E-01
    0.36808207020992057823E-01
    0.36418444317604409255E-01
    0.50220960785893109524E-01
    0.39507156792954370439E-01
    0.42760634160662738812E-01
    0.47431907083785578016E-01
    0.47439070011855127840E-01
    0.40124966326788330528E-01
    0.42724089672792557593E-01
    0.30021001471331854038E-01
    0.32703126894521913903E-01
    0.27827128238339667032E-01
    0.33173719004182214420E-01
    0.34789662409629468209E-01
    0.28186556796598968844E-01
    0.29628545952720235224E-01
    0.40237426814353799420E-01
    0.45012166964322648799E-01
    0.38115223024719827039E-01
    0.47237345047378129226E-01
    0.44600536863772327623E-01
    0.38203251472540639133E-01
    0.40813125758635396267E-01
    0.54908360349470886064E-01
    0.59128224216331487506E-01
    0.51015176757194413693E-01
    0.60727942015662360331E-01
    0.63680368317958008229E-01
    0.53924940279391667119E-01
    0.51782844214282766626E-01
    0.26890608511498236000E-01
    0.26079919676466993550E-01
    0.23386078986068370433E-01
    0.29112037232878022752E-01
    0.28663001101932490677E-01
    0.24100539339513473575E-01
    0.24551914466187492458E-01
    0.63365439788421462630E-01
    0.70487346954992466386E-01
    0.74957780242095317647E-01
    0.66445994178382247752E-01
    0.77828032313545264520E-01
    0.65753413568352306329E-01
    0.54584564814165209556E-01
    0.60826536583682547232E-01
    0.62782764106760147182E-01
    0.54011319907552694797E-01
    0.58087288583544421927E-01
    0.45738418908612694935E-01
    0.54868757724304342838E-01
    0.51825565593262228059E-01
    0.50213629483588650970E-01
    0.47166885694599557100E-01
    0.31160146776867719137E-01
    0.34004668616175556806E-01
    0.31112856997784620050E-01
    0.33750260218940390800E-01
    0.35343104271139041961E-01
    0.53144431476848982832E-01
    0.62604252549433317410E-01
    0.55731677879832644540E-01
    0.57161952212772274007E-01
    0.62463225614254339058E-01
    0.40417715158260862640E-01
    0.44519608608073094058E-01
    0.45876112829789268688E-01
    0.39331022166686512020E-01
    0.42038489699597531013E-01
    0.64332827270555004162E-01
    0.56460453811553255876E-01
    0.62687023160068564009E-01
    0.54824724732733927379E-01
    0.58123430707484213809E-01
    0.38269638546487412534E-01
    0.45493711941726938663E-01
    0.40627869329507099172E-01
    0.40861963468102967256E-01
    0.44724709800180686980E-01
    0.70280290356875302349E-01
    0.66348280551444233089E-01
    0.71860222335837525831E-01
    0.66946447887780133335E-01
    0.77235546143465783064E-01
    0.30596365103003494990E-01
    0.36733138416691700490E-01
    0.32987843978855069249E-01
    0.32129917117107553715E-01
    0.35310774183462886877E-01
    0.30351575180232827356E-01
    0.28172555650599024474E-01
    0.30696919000161589086E-01
    0.28400230983208915592E-01
    0.32493937614964774063E-01
    0.86767105898796270669E-01
    0.73172815089984258319E-01
    0.79863311726020097536E-01
    0.70994563212114614181E-01
    0.73443771111436434440E-01
    0.45561326242086322424E-01
    0.45081233920337679399E-01
    0.50751042852292309326E-01
    0.49253895286708052059E-01
    0.52819310235984212598E-01
    0.59132939309708934528E-01
    0.53200315293777951375E-01
    0.53236628568735733236E-01
    0.59202617770421017696E-01
    0.87333560079648014929E-01
    0.91142955571310926843E-01
    0.91529192132509609725E-01
    0.47684621151442514730E-01
    0.38873406810367334974E-01
    0.43815832083386095641E-01
    0.28176912900305252363E-01
    0.29528751345161342867E-01
    0.33017161060156563490E-01
    0.32553701648231909982E-01
    0.32898686527298132143E-01
    0.35703417348877344861E-01
    0.36270874948153078443E-01
    0.38572590064280272426E-01
    0.43138383192685987588E-01
    0.48319934174356773959E-01
    0.47226521864757287084E-01
    0.51607608315499056695E-01
    0.64757221531410433246E-01
    0.61010352152869443132E-01
    0.76024525125808387060E-01
    0.66770585971170942630E-01
    0.45915578597939724070E-01
    0.38337258774279826812E-01
    0.39739860203749935441E-01
    0.66089011259722371672E-01
    0.60984927123063123466E-01
    0.32038799702344765430E-01
    0.28890998974628143148E-01
    0.27381484896876463059E-01
    0.42420754618678835346E-01
    0.37087289994504057944E-01
    0.36589564993393448866E-01
    0.50030252558694532361E-01
    0.51896306220148118171E-01
    0.43025024770531480889E-01
    0.58376216463461853834E-01
    0.51199359403962099724E-01
    0.50061731163637906983E-01
    0.36455719923118613812E-01
    0.37054806766937703477E-01
    0.30959877467187302963E-01
    0.65585626722827694568E-01
    0.62007200505404050372E-01
    0.55361470354178501929E-01
    0.29751694899160407992E-01
    0.29157047542176670052E-01
    0.25101401381595594281E-01
    0.28420690047688771523E-01
    0.26283255427178540964E-01
    0.23993031394073410789E-01
    0.59633808011409716876E-01
    0.76501443889063311388E-01
    0.67654509021993769480E-01
    0.64753512013263611613E-01
    0.43960805975778893817E-01
    0.57046888638187048803E-01
    0.50044063290796067522E-01
    0.48804470801203064800E-01
    0.36314838784070185840E-01
    0.45858624180255783132E-01
    0.42864093813986883785E-01
    0.38956766183810290216E-01
    0.69541366742541271817E-01
    0.73367869565097804108E-01
    0.83046025552968749661E-01
    0.57268286319172495569E-01
    0.55259100588732928960E-01
    0.34982071797973607330E-01
    0.37076649883169027211E-01
    0.25636228062010095463E-01
    0.26799815354839565118E-01
    0.48735140214218722332E-01
    0.47076336253333316006E-01
    0.21797785992760145002E-01
    0.22165554932412893929E-01
    0.49553198956704846978E-01
    0.36926028348847367289E-01
    0.36694432260422335523E-01
    0.67702274173388671263E-01
    0.31647545551464387192E-01
    0.48663840865880769737E-01
    0.78426868250347003819E-01
    0.33403643754077214090E-01
    0.66596451206663687117E-01
    0.48393548588983384406E-01
    0.55725138804045878937E-01
    0.45335588428415549145E-01
    0.55868639775696615768E-01
    0.31730063203952531270E-01
    0.33946027811356208059E-01
    0.43713663775668709643E-01
    0.52901434884297174333E-01
    0.61585793757276824367E-01
    0.38771915424547429008E-01
    0.62637435644033359616E-01
    0.53676334920227122827E-01
    0.87608396234580859785E-01
    0.36423221908830794025E-01
    0.30330519858276082379E-01
    0.28812281918275940013E-01
    0.39502741096167935664E-01
    0.38380421780197945814E-01
    0.21814586814173371476E-01
    0.20952509222437718656E-01
    0.17672562053458251013E-01
    0.17947539514549450124E-01
    0.36350743964887140269E-01
    0.43085026231545336950E-01
    0.49504628591056532017E-01
    0.54378405881952918133E-01
    0.54953466695906637296E-01
    0.51965546303220228053E-01
    0.45990529752195530300E-01
    0.41749828470771091493E-01
    0.43609967052495778039E-01
    0.42742058592732626310E-01
    0.39903932470186989634E-01
    0.35494979222069907021E-01
    0.30722972438489568742E-01
    0.25985430905114931255E-01
    0.22785918914275893332E-01
    0.24282261440536766217E-01
    0.24883384721093894376E-01
    0.24798782454411753134E-01
    0.23626356740065426743E-01
    0.22046000194993878307E-01
    0.19878582072620751969E-01
    0.30684106202317498746E-01
    0.31724029569300211950E-01
    0.31225609858334328617E-01
    0.29693712401431305442E-01
    0.27086848379532429965E-01
    0.24098927054987673291E-01
    0.20898376657808859225E-01
