# vtk DataFile Version 3.0
LAPLACIEN  2D
ASCII
DATASET UNSTRUCTURED_GRID
 POINTS         391  float
  0.50371505999999999       0.50367786999999997        0.0000000000000000     
  0.29013556000000001       0.29014535000000002        0.0000000000000000     
  0.70165584999999997       0.71206597999999999        0.0000000000000000     
  0.70304188999999995       0.30176619999999998        0.0000000000000000     
  0.30920671999999999       0.71149227999999998        0.0000000000000000     
  0.79044983999999996       0.49884783999999999        0.0000000000000000     
  0.49102621000000002       0.20968644000000000        0.0000000000000000     
  0.49912957000000002       0.77208717000000004        0.0000000000000000     
  0.21724072999999999       0.48989389000000000        0.0000000000000000     
  0.83255933999999998       0.83046598000000005        0.0000000000000000     
  0.16646774000000000       0.17015694000000001        0.0000000000000000     
  0.83054514999999995       0.16736480000000001        0.0000000000000000     
  0.16953130999999999       0.83265739000000005        0.0000000000000000     
  0.42166445000000002       0.36345201999999999        0.0000000000000000     
  0.64462200999999997       0.56347807999999999        0.0000000000000000     
  0.35324633999999999       0.56311191000000005        0.0000000000000000     
  0.65456411000000003       0.84856860999999995        0.0000000000000000     
  0.35141477999999998       0.15563974000000000        0.0000000000000000     
  0.15290967000000000       0.35206625000000003        0.0000000000000000     
  0.82942241000000005       0.34936866000000000        0.0000000000000000     
  0.84390527000000004       0.64441694999999999        0.0000000000000000     
  0.63699174999999997       0.14284276000000001        0.0000000000000000     
  0.15620682999999999       0.64648446999999998        0.0000000000000000     
  0.36426062999999997       0.85756310999999996        0.0000000000000000     
  0.63489340999999999       0.40519052000000000        0.0000000000000000     
  0.52518872999999999       0.65957078000000002        0.0000000000000000     
  0.32158959999999998       0.42298103999999997        0.0000000000000000     
  0.58861710000000000       0.31711036999999997        0.0000000000000000     
  0.42078418000000001       0.69497151999999995        0.0000000000000000     
  0.48608786999999998       0.89334152000000000        0.0000000000000000     
   9.7084320000000002E-002  0.50000000000000000        0.0000000000000000     
  0.90291568000000000       0.50000000000000000        0.0000000000000000     
  0.51392453000000005       0.10668648999999999        0.0000000000000000     
  0.59792566999999996       0.73122754000000001        0.0000000000000000     
  0.74510058999999995       0.41124730999999998        0.0000000000000000     
  0.73212551999999997       0.90191560000000004        0.0000000000000000     
   9.7784830000000003E-002  0.26957329000000002        0.0000000000000000     
  0.26711221000000002        9.8671499999999995E-002   0.0000000000000000     
  0.90191560000000004       0.26787448000000003        0.0000000000000000     
  0.90118569000000004       0.73039821000000005        0.0000000000000000     
  0.73122947000000005        9.8017859999999998E-002   0.0000000000000000     
   9.8084400000000002E-002  0.73212551999999997        0.0000000000000000     
  0.26957329000000002       0.90221516999999996        0.0000000000000000     
  0.39283522999999998       0.25360379000000000        0.0000000000000000     
  0.74480864000000002       0.60495284999999999        0.0000000000000000     
  0.25505132000000003       0.60593640999999998        0.0000000000000000     
  0.52159297999999998       0.40671636000000000        0.0000000000000000     
  0.40768852000000000       0.47699891000000000        0.0000000000000000     
   9.1467049999999994E-002   9.1876959999999994E-002   0.0000000000000000     
  0.90842484999999995       0.90819225000000003        0.0000000000000000     
  0.90820104999999995        9.1566729999999999E-002   0.0000000000000000     
   9.1807449999999999E-002  0.90843574000000005        0.0000000000000000     
  0.27098960000000000       0.20527094000000001        0.0000000000000000     
  0.73457293999999995       0.79835387000000002        0.0000000000000000     
  0.79817773000000003       0.25713470999999999        0.0000000000000000     
  0.20747797000000001       0.72863946000000002        0.0000000000000000     
  0.20175195000000001       0.27583914999999998        0.0000000000000000     
  0.79603889000000005       0.72159035000000005        0.0000000000000000     
  0.71761666000000002       0.19748431999999999        0.0000000000000000     
  0.28462607000000001       0.80251899999999998        0.0000000000000000     
  0.69134598999999997       0.49261972999999998        0.0000000000000000     
  0.44720578999999999       0.58582935999999997        0.0000000000000000     
  0.24242269999999999       0.37228174000000003        0.0000000000000000     
  0.38265623999999998       0.93072131999999996        0.0000000000000000     
  0.60971754000000000       0.91988369000000003        0.0000000000000000     
   7.9163609999999995E-002  0.60979116000000000        0.0000000000000000     
  0.92010649000000000       0.61081183999999999        0.0000000000000000     
  0.61954008999999999        7.1530830000000004E-002   0.0000000000000000     
  0.91882012999999996       0.38917363999999999        0.0000000000000000     
  0.39086346000000000        8.0652249999999995E-002   0.0000000000000000     
   7.9183480000000001E-002  0.38966213000000000        0.0000000000000000     
  0.59114111999999996       0.49294315000000000        0.0000000000000000     
  0.63337980999999999       0.64485914000000000        0.0000000000000000     
  0.50012352000000004       0.29676539000000002        0.0000000000000000     
  0.82552601000000003       0.92753492000000004        0.0000000000000000     
  0.92774772999999999       0.82498556999999995        0.0000000000000000     
   7.1970870000000006E-002  0.17510291000000000        0.0000000000000000     
  0.17422821999999999        7.2635640000000001E-002   0.0000000000000000     
  0.82510813000000005        7.2134840000000006E-002   0.0000000000000000     
  0.92754665000000003       0.17446275999999999        0.0000000000000000     
  0.17501022999999999       0.92789951999999998        0.0000000000000000     
   7.2464680000000004E-002  0.82554053000000005        0.0000000000000000     
  0.30731587999999999       0.50885354999999999        0.0000000000000000     
  0.59033407999999998       0.22171178999999999        0.0000000000000000     
  0.40109191999999999       0.78725542000000004        0.0000000000000000     
  0.35420917000000002       0.63754104000000000        0.0000000000000000     
  0.15983976999999999       0.56665573000000002        0.0000000000000000     
  0.84108459999999996       0.56757886999999996        0.0000000000000000     
  0.83902096000000004       0.43344338999999998        0.0000000000000000     
  0.43230028999999998       0.16004268999999999        0.0000000000000000     
  0.57536027999999995       0.83041363999999995        0.0000000000000000     
  0.15771898000000001       0.42747892999999998        0.0000000000000000     
  0.34021692999999997       0.34221559000000001        0.0000000000000000     
  0.56002271999999997       0.57501117999999996        0.0000000000000000     
  0.65344329000000001       0.78147597999999996        0.0000000000000000     
   0.0000000000000000        0.0000000000000000        0.0000000000000000     
   1.0000000000000000        0.0000000000000000        0.0000000000000000     
   1.0000000000000000        1.0000000000000000        0.0000000000000000     
   0.0000000000000000        1.0000000000000000        0.0000000000000000     
  0.11111111000000000        0.0000000000000000        0.0000000000000000     
  0.22222222000000000        0.0000000000000000        0.0000000000000000     
  0.33333332999999998        0.0000000000000000        0.0000000000000000     
  0.44444444000000000        0.0000000000000000        0.0000000000000000     
  0.55555555999999995        0.0000000000000000        0.0000000000000000     
  0.66666667000000002        0.0000000000000000        0.0000000000000000     
  0.77777777999999997        0.0000000000000000        0.0000000000000000     
  0.88888889000000004        0.0000000000000000        0.0000000000000000     
   1.0000000000000000       0.11111111000000000        0.0000000000000000     
   1.0000000000000000       0.22222222000000000        0.0000000000000000     
   1.0000000000000000       0.33333332999999998        0.0000000000000000     
   1.0000000000000000       0.44444444000000000        0.0000000000000000     
   1.0000000000000000       0.55555555999999995        0.0000000000000000     
   1.0000000000000000       0.66666667000000002        0.0000000000000000     
   1.0000000000000000       0.77777777999999997        0.0000000000000000     
   1.0000000000000000       0.88888889000000004        0.0000000000000000     
  0.88888889000000004        1.0000000000000000        0.0000000000000000     
  0.77777777999999997        1.0000000000000000        0.0000000000000000     
  0.66666667000000002        1.0000000000000000        0.0000000000000000     
  0.55555555999999995        1.0000000000000000        0.0000000000000000     
  0.44444444000000000        1.0000000000000000        0.0000000000000000     
  0.33333332999999998        1.0000000000000000        0.0000000000000000     
  0.22222222000000000        1.0000000000000000        0.0000000000000000     
  0.11111111000000000        1.0000000000000000        0.0000000000000000     
   0.0000000000000000       0.11111111000000000        0.0000000000000000     
   0.0000000000000000       0.22222222000000000        0.0000000000000000     
[...]
 CELL_DATA         354
 SCALARS V float
 LOOKUP_TABLE default
    0.32495935482125602560E-02
    0.53381871600479188084E-02
    0.23915466749577893486E-02
    0.23018245224808112775E-02
    0.37561416908166466756E-02
    0.42401600547681099485E-02
    0.10803380312536397384E-01
    0.63491050349957943097E-02
    0.14968239570507101133E-01
    0.17906754415320504104E-01
    0.22145644922276358502E-01
    0.20515040536662566828E-01
    0.22103520992536644652E-01
    0.22278300793381590472E-01
    0.21922623397209659718E-01
    0.22504763018379100870E-01
    0.21032793036656068086E-01
    0.18534133626001078610E-01
    0.11276743644024336127E-01
    0.16447451064610339733E-01
    0.84806633937388291311E-02
    0.10632155273313913940E-01
    0.15062072390817951920E-01
    0.11985406895297154653E-01
    0.15547262078555182385E-01
    0.14702326730177416730E-01
    0.97874892401338640935E-02
    0.13649855429702463516E-01
    0.54773321374202744993E-02
    0.48847689054693230540E-02
    0.35817279458627547008E-02
    0.40518441437836496752E-02
    0.32933302399867207290E-02
    0.29210083504347819985E-02
    0.25158673677898079138E-02
    0.27023810838689822991E-02
    0.24514688301429522592E-02
    0.24717199717260696611E-02
    0.26530922428554554876E-02
    0.25300236767145426429E-02
    0.26683135828994754973E-02
    0.26931874323404898959E-02
    0.27430629652906530699E-02
    0.27077559267777284030E-02
    0.27330168305422261436E-02
    0.25649279350165219392E-02
    0.24488747842832509459E-02
    0.24871873746705650508E-02
    0.24021156628939374644E-02
    0.23253222574262256278E-02
    0.22579919961012787089E-02
    0.22491009700973257912E-02
    0.33735652260741852242E-02
    0.34158615999964033264E-02
    0.36789114545416365214E-02
    0.34816767810655750194E-02
    0.36519583760953955656E-02
    0.35620868511547307961E-02
    0.34300825673281463632E-02
    0.35167829251208726840E-02
    0.33037781147900466619E-02
    0.30356100936270924082E-02
    0.26464673394686380990E-02
    0.28663145668886163588E-02
    0.25320928499183120546E-02
    0.23720113482988314409E-02
    0.21826516716668205483E-02
    0.22528140676358943996E-02
    0.21086731542654724159E-01
    0.20766311142550761965E-01
    0.20858877583307754155E-01
    0.21124482612494659139E-01
    0.21392688049809836792E-01
    0.21580503742299767672E-01
    0.19565597066223808231E-01
    0.17192034253967838214E-01
    0.18020701775565868552E-01
    0.20341582164776245145E-01
    0.10408877066505827294E-01
    0.13149269534722857894E-01
    0.52756747519781890809E-02
    0.85364813334610767370E-02
    0.14448473146215765062E-01
    0.57556343074775355440E-02
    0.21004291823993437305E-01
    0.17852728465686876214E-01
    0.13437231058912740139E-01
    0.20389206316842087285E-01
    0.20916464321861213960E-01
    0.19645322857891365370E-01
    0.15474220136103122164E-01
    0.68106973949865921500E-02
    0.56980938031267660410E-02
    0.42694682761488392600E-02
    0.40683418060520944864E-02
    0.45191121356494695638E-02
    0.75874633723468400126E-02
    0.16984387470458356395E-01
    0.21390650107990183404E-01
    0.18647524706059778743E-01
    0.20659917012862811375E-01
    0.17005523603413300049E-01
    0.19428787305939245605E-01
    0.20131209424853857559E-01
    0.20409282351677830031E-01
    0.18964126087542044347E-01
    0.18827104156305521365E-01
    0.20749308473129869645E-01
    0.10027275610888057578E-01
    0.82395624134949767281E-02
    0.42258990492866996963E-02
    0.76214748751577930663E-02
    0.47037248373206688029E-02
    0.46136870580075223930E-02
    0.16399938409793080735E-01
    0.55645210221495376365E-02
    0.10492681628119313736E-01
    0.16051886281316797567E-01
    0.15246115886169132186E-01
    0.55771784412807050291E-02
    0.11399171955160759123E-01
    0.32245628089346105305E-02
    0.36769042176313464741E-02
    0.29635184295680565281E-02
    0.39010855076683304335E-02
    0.42103129684549914571E-02
    0.29514686225332840974E-02
    0.31632480914820580546E-02
    0.68627685440779059856E-02
    0.13175517812378868474E-01
    0.47417428923516181244E-02
    0.15176294456442564196E-01
    0.11883053686806836421E-01
    0.45873204496815617182E-02
    0.83591832870813856382E-02
    0.19237719984233556114E-01
    0.20852678935413926364E-01
    0.17590444385844374031E-01
    0.20734202447664010216E-01
    0.21381605025006661380E-01
    0.19062317032686213608E-01
    0.17655745798064406693E-01
    0.27644239957879891863E-02
    0.26523423971738144776E-02
    0.24109527263561662466E-02
    0.31552332736843559033E-02
    0.30549378887048347399E-02
    0.24489187490890781083E-02
    0.24922328962190742549E-02
    0.21185392183820157819E-01
    0.20186135408673686054E-01
    0.20622500169925839231E-01
    0.20993537434496816613E-01
    0.20611329951773268987E-01
    0.20874064845676009589E-01
    0.18529050666308458095E-01
    0.20700100123569046412E-01
    0.21781556026604854265E-01
    0.18345603143069447172E-01
    0.20631642467948550085E-01
    0.14416479347437184330E-01
    0.19694029939723110140E-01
    0.18345607088554996555E-01
    0.16789950650625429934E-01
    0.15986420279151380280E-01
    0.35537644360048694162E-02
    0.42061686784498021272E-02
    0.35775009935566171385E-02
    0.40451498992435750562E-02
    0.43964105119815664185E-02
    0.17773266941212055581E-01
    0.21492832192662410240E-01
    0.19743711646934815340E-01
    0.19209519304440668408E-01
    0.21046426214368280094E-01
    0.66870852748809163704E-02
    0.11499362907425652799E-01
    0.14983800003462369524E-01
    0.53094016770091831403E-02
    0.10673704230568492254E-01
    0.20922790122353970843E-01
    0.19108513075888074184E-01
    0.20325128617274305920E-01
    0.18514352524772372671E-01
    0.20114458849524424755E-01
    0.51859493470267836387E-02
    0.12904897895137573682E-01
    0.83935209776720351438E-02
    0.79119951223378896105E-02
    0.12270308201795733505E-01
    0.20067215716772883460E-01
    0.21279827242204278626E-01
    0.19890503556345112690E-01
    0.21171836289135104181E-01
    0.20466327239226235479E-01
    0.34723221292692245735E-02
    0.45698611558930655324E-02
    0.38012986384894564482E-02
    0.37709883121068640821E-02
    0.43072120761390459559E-02
    0.31768336653874773221E-02
    0.30121773302211342881E-02
    0.33437564008717696185E-02
    0.29562514481866319221E-02
    0.35595884102287735085E-02
    0.15692409869280984913E-01
    0.20493894218257056872E-01
    0.17689526792013968853E-01
    0.21256137117748177129E-01
    0.20513553243883465849E-01
    0.13355650297964318310E-01
    0.12358851607441783196E-01
    0.17004105015962788644E-01
    0.15855157646961423601E-01
    0.17981924119921329636E-01
    0.20399189472640327780E-01
    0.17502880520776371853E-01
    0.17724177051240373737E-01
    0.20207633044026430957E-01
    0.14088961753564638313E-01
    0.11470505522551558211E-01
    0.10818802606971811980E-01
    0.16271655100453162601E-01
    0.51286198189136244716E-02
    0.12930749478872970853E-01
    0.29122718641264918465E-02
    0.31418185304746470629E-02
    0.37790358535305366462E-02
    0.37628606809912337056E-02
    0.37399856455364575460E-02
    0.41859519344681263980E-02
    0.43942015823511182057E-02
    0.53801906740828910405E-02
    0.91566421793232138232E-02
    0.14683249730635665464E-01
    0.14368991018713535290E-01
    0.16708932773756738493E-01
    0.21119656690661903209E-01
    0.21737270296459665353E-01
    0.20527131570911065495E-01
    0.20896080337400740196E-01
    0.14474054800759581993E-01
    0.50784687262494954824E-02
    0.57345468449195233229E-02
    0.20920414150954004529E-01
    0.21367244593262037233E-01
    0.36988508087558006655E-02
    0.30883607316351323162E-02
    0.28349071122697076450E-02
    0.81028135893245721577E-02
    0.43779999254095116473E-02
    0.41807465614130652834E-02
    0.16286750534870188950E-01
    0.17071024491445513371E-01
    0.95544061919620032475E-02
    0.20172607726355120533E-01
    0.16750099010803719962E-01
    0.16440706767487545115E-01
    0.46183121345798813784E-02
    0.46641109914082844179E-02
    0.33583383939878412583E-02
    0.21084123823037429629E-01
    0.21990128227854514181E-01
    0.20444875067767410981E-01
    0.32729717800566212466E-02
    0.31612328329346400281E-02
    0.25671177283772576502E-02
    0.30394328811316540830E-02
    0.27185768047382975927E-02
    0.24374399373154396857E-02
    0.21654316324238941094E-01
    0.20756723292534352138E-01
    0.20837592338396947883E-01
    0.20950496682997230696E-01
    0.11017724420204561692E-01
    0.19849677932919609219E-01
    0.15871245398587280340E-01
    0.15764232884327277623E-01
    0.44892553839339160646E-02
    0.14379569803544033427E-01
    0.10861896034030347341E-01
    0.53816609465335615153E-02
    0.21270402457229366233E-01
    0.20184075939287011991E-01
    0.16854866163741308305E-01
    0.20357019701608171369E-01
    0.19622556249200673317E-01
    0.39841575510871276439E-02
    0.45363839019762200108E-02
    0.26639756827441648732E-02
    0.28233822222639660612E-02
    0.16813266525969136622E-01
    0.14644870244056489364E-01
    0.22363415834492951506E-02
    0.22704126474480425257E-02
    0.16079761094391013809E-01
    0.48162979900120651486E-02
    0.48098460873603893218E-02
    0.20896074778970485930E-01
    0.35905561337016833612E-02
    0.15547089252242997370E-01
    0.19517361840133522211E-01
    0.37676636492403776935E-02
    0.21130189129180236562E-01
    0.17149119129373481540E-01
    0.19710247415760218104E-01
    0.15301751996595055333E-01
    0.19304918599466223961E-01
    0.36505587345998348828E-02
    0.40630998862820153633E-02
    0.11263970535692939545E-01
    0.17437906545791841822E-01
    0.21160840560603758065E-01
    0.51890975223558592419E-02
    0.21967567774042445067E-01
    0.18324553587240766800E-01
    0.13637309408551810674E-01
    0.46205278437578770762E-02
    0.32227595471410164750E-02
    0.28762288036215362744E-02
    0.54277738308990217814E-02
    0.42567667114597976946E-02
    0.23416205259959421009E-02
    0.22858996189929767576E-02
    0.23134821887033744925E-02
    0.22257820174637985705E-02
    0.41475960827081145843E-02
    0.89947894284548354088E-02
    0.11655396070714359874E-01
    0.13342109277123617023E-01
    0.13655500235425620942E-01
    0.12930965885834514242E-01
    0.10863048937399130689E-01
    0.70564039783662779043E-02
    0.10217333668160291302E-01
    0.93191131644304453507E-02
    0.51668350163439728806E-02
    0.37248161324129566187E-02
    0.31337613543737439896E-02
    0.26831085597242513435E-02
    0.23541398041287560881E-02
    0.24202828375899688995E-02
    0.24552617993739631053E-02
    0.24509503701288471930E-02
    0.23817818097409933567E-02
    0.23064755268380754405E-02
    0.22859589396794317492E-02
    0.30610915805808912478E-02
    0.31432236106979033821E-02
    0.30837473586212780369E-02
    0.29316958554575361928E-02
    0.26791411980478076552E-02
    0.24308532760215183222E-02
    0.22843228851115639916E-02
