# vtk DataFile Version 3.0
LAPLACIEN  2D
ASCII
DATASET UNSTRUCTURED_GRID
 POINTS         391  float
  0.50371505999999999       0.50367786999999997        0.0000000000000000     
  0.29013556000000001       0.29014535000000002        0.0000000000000000     
  0.70165584999999997       0.71206597999999999        0.0000000000000000     
  0.70304188999999995       0.30176619999999998        0.0000000000000000     
  0.30920671999999999       0.71149227999999998        0.0000000000000000     
  0.79044983999999996       0.49884783999999999        0.0000000000000000     
  0.49102621000000002       0.20968644000000000        0.0000000000000000     
  0.49912957000000002       0.77208717000000004        0.0000000000000000     
  0.21724072999999999       0.48989389000000000        0.0000000000000000     
  0.83255933999999998       0.83046598000000005        0.0000000000000000     
  0.16646774000000000       0.17015694000000001        0.0000000000000000     
  0.83054514999999995       0.16736480000000001        0.0000000000000000     
  0.16953130999999999       0.83265739000000005        0.0000000000000000     
  0.42166445000000002       0.36345201999999999        0.0000000000000000     
  0.64462200999999997       0.56347807999999999        0.0000000000000000     
  0.35324633999999999       0.56311191000000005        0.0000000000000000     
  0.65456411000000003       0.84856860999999995        0.0000000000000000     
  0.35141477999999998       0.15563974000000000        0.0000000000000000     
  0.15290967000000000       0.35206625000000003        0.0000000000000000     
  0.82942241000000005       0.34936866000000000        0.0000000000000000     
  0.84390527000000004       0.64441694999999999        0.0000000000000000     
  0.63699174999999997       0.14284276000000001        0.0000000000000000     
  0.15620682999999999       0.64648446999999998        0.0000000000000000     
  0.36426062999999997       0.85756310999999996        0.0000000000000000     
  0.63489340999999999       0.40519052000000000        0.0000000000000000     
  0.52518872999999999       0.65957078000000002        0.0000000000000000     
  0.32158959999999998       0.42298103999999997        0.0000000000000000     
  0.58861710000000000       0.31711036999999997        0.0000000000000000     
  0.42078418000000001       0.69497151999999995        0.0000000000000000     
  0.48608786999999998       0.89334152000000000        0.0000000000000000     
   9.7084320000000002E-002  0.50000000000000000        0.0000000000000000     
  0.90291568000000000       0.50000000000000000        0.0000000000000000     
  0.51392453000000005       0.10668648999999999        0.0000000000000000     
  0.59792566999999996       0.73122754000000001        0.0000000000000000     
  0.74510058999999995       0.41124730999999998        0.0000000000000000     
  0.73212551999999997       0.90191560000000004        0.0000000000000000     
   9.7784830000000003E-002  0.26957329000000002        0.0000000000000000     
  0.26711221000000002        9.8671499999999995E-002   0.0000000000000000     
  0.90191560000000004       0.26787448000000003        0.0000000000000000     
  0.90118569000000004       0.73039821000000005        0.0000000000000000     
  0.73122947000000005        9.8017859999999998E-002   0.0000000000000000     
   9.8084400000000002E-002  0.73212551999999997        0.0000000000000000     
  0.26957329000000002       0.90221516999999996        0.0000000000000000     
  0.39283522999999998       0.25360379000000000        0.0000000000000000     
  0.74480864000000002       0.60495284999999999        0.0000000000000000     
  0.25505132000000003       0.60593640999999998        0.0000000000000000     
  0.52159297999999998       0.40671636000000000        0.0000000000000000     
  0.40768852000000000       0.47699891000000000        0.0000000000000000     
   9.1467049999999994E-002   9.1876959999999994E-002   0.0000000000000000     
  0.90842484999999995       0.90819225000000003        0.0000000000000000     
  0.90820104999999995        9.1566729999999999E-002   0.0000000000000000     
   9.1807449999999999E-002  0.90843574000000005        0.0000000000000000     
  0.27098960000000000       0.20527094000000001        0.0000000000000000     
  0.73457293999999995       0.79835387000000002        0.0000000000000000     
  0.79817773000000003       0.25713470999999999        0.0000000000000000     
  0.20747797000000001       0.72863946000000002        0.0000000000000000     
  0.20175195000000001       0.27583914999999998        0.0000000000000000     
  0.79603889000000005       0.72159035000000005        0.0000000000000000     
  0.71761666000000002       0.19748431999999999        0.0000000000000000     
  0.28462607000000001       0.80251899999999998        0.0000000000000000     
  0.69134598999999997       0.49261972999999998        0.0000000000000000     
  0.44720578999999999       0.58582935999999997        0.0000000000000000     
  0.24242269999999999       0.37228174000000003        0.0000000000000000     
  0.38265623999999998       0.93072131999999996        0.0000000000000000     
  0.60971754000000000       0.91988369000000003        0.0000000000000000     
   7.9163609999999995E-002  0.60979116000000000        0.0000000000000000     
  0.92010649000000000       0.61081183999999999        0.0000000000000000     
  0.61954008999999999        7.1530830000000004E-002   0.0000000000000000     
  0.91882012999999996       0.38917363999999999        0.0000000000000000     
  0.39086346000000000        8.0652249999999995E-002   0.0000000000000000     
   7.9183480000000001E-002  0.38966213000000000        0.0000000000000000     
  0.59114111999999996       0.49294315000000000        0.0000000000000000     
  0.63337980999999999       0.64485914000000000        0.0000000000000000     
  0.50012352000000004       0.29676539000000002        0.0000000000000000     
  0.82552601000000003       0.92753492000000004        0.0000000000000000     
  0.92774772999999999       0.82498556999999995        0.0000000000000000     
   7.1970870000000006E-002  0.17510291000000000        0.0000000000000000     
  0.17422821999999999        7.2635640000000001E-002   0.0000000000000000     
  0.82510813000000005        7.2134840000000006E-002   0.0000000000000000     
  0.92754665000000003       0.17446275999999999        0.0000000000000000     
  0.17501022999999999       0.92789951999999998        0.0000000000000000     
   7.2464680000000004E-002  0.82554053000000005        0.0000000000000000     
  0.30731587999999999       0.50885354999999999        0.0000000000000000     
  0.59033407999999998       0.22171178999999999        0.0000000000000000     
  0.40109191999999999       0.78725542000000004        0.0000000000000000     
  0.35420917000000002       0.63754104000000000        0.0000000000000000     
  0.15983976999999999       0.56665573000000002        0.0000000000000000     
  0.84108459999999996       0.56757886999999996        0.0000000000000000     
  0.83902096000000004       0.43344338999999998        0.0000000000000000     
  0.43230028999999998       0.16004268999999999        0.0000000000000000     
  0.57536027999999995       0.83041363999999995        0.0000000000000000     
  0.15771898000000001       0.42747892999999998        0.0000000000000000     
  0.34021692999999997       0.34221559000000001        0.0000000000000000     
  0.56002271999999997       0.57501117999999996        0.0000000000000000     
  0.65344329000000001       0.78147597999999996        0.0000000000000000     
   0.0000000000000000        0.0000000000000000        0.0000000000000000     
   1.0000000000000000        0.0000000000000000        0.0000000000000000     
   1.0000000000000000        1.0000000000000000        0.0000000000000000     
   0.0000000000000000        1.0000000000000000        0.0000000000000000     
  0.11111111000000000        0.0000000000000000        0.0000000000000000     
  0.22222222000000000        0.0000000000000000        0.0000000000000000     
  0.33333332999999998        0.0000000000000000        0.0000000000000000     
  0.44444444000000000        0.0000000000000000        0.0000000000000000     
  0.55555555999999995        0.0000000000000000        0.0000000000000000     
  0.66666667000000002        0.0000000000000000        0.0000000000000000     
  0.77777777999999997        0.0000000000000000        0.0000000000000000     
  0.88888889000000004        0.0000000000000000        0.0000000000000000     
   1.0000000000000000       0.11111111000000000        0.0000000000000000     
   1.0000000000000000       0.22222222000000000        0.0000000000000000     
   1.0000000000000000       0.33333332999999998        0.0000000000000000     
   1.0000000000000000       0.44444444000000000        0.0000000000000000     
   1.0000000000000000       0.55555555999999995        0.0000000000000000     
   1.0000000000000000       0.66666667000000002        0.0000000000000000     
   1.0000000000000000       0.77777777999999997        0.0000000000000000     
   1.0000000000000000       0.88888889000000004        0.0000000000000000     
  0.88888889000000004        1.0000000000000000        0.0000000000000000     
  0.77777777999999997        1.0000000000000000        0.0000000000000000     
  0.66666667000000002        1.0000000000000000        0.0000000000000000     
  0.55555555999999995        1.0000000000000000        0.0000000000000000     
  0.44444444000000000        1.0000000000000000        0.0000000000000000     
  0.33333332999999998        1.0000000000000000        0.0000000000000000     
  0.22222222000000000        1.0000000000000000        0.0000000000000000     
  0.11111111000000000        1.0000000000000000        0.0000000000000000     
   0.0000000000000000       0.11111111000000000        0.0000000000000000     
   0.0000000000000000       0.22222222000000000        0.0000000000000000     
[...]
 CELL_DATA         354
 SCALARS V float
 LOOKUP_TABLE default
    0.30851607316907836420E-01
    0.40782091445046214639E-01
    0.22326652131337446777E-01
    0.18622667654077294797E-01
    0.33610969524830280886E-01
    0.36268297337945135106E-01
    0.43314188042054051209E-01
    0.39490694569695845850E-01
    0.46980059761021542020E-01
    0.50855060831468131000E-01
    0.58524353273819260113E-01
    0.54337531605697743375E-01
    0.60166007382081047872E-01
    0.59180850908770378516E-01
    0.56936094203571888106E-01
    0.58292490718442016573E-01
    0.54233446342278390784E-01
    0.50198959160129098811E-01
    0.43970799484229133869E-01
    0.46851487253251160314E-01
    0.42662438929232091023E-01
    0.43880818116277232888E-01
    0.47124467842339319568E-01
    0.45331200649264991043E-01
    0.47490415134262956021E-01
    0.46471829701711535321E-01
    0.43924378176398784501E-01
    0.45354263555571955324E-01
    0.41820299318491328810E-01
    0.38794225984076474711E-01
    0.33564198609935869122E-01
    0.36223087404066205142E-01
    0.30995154483800940737E-01
    0.28282707061973340334E-01
    0.24229778194951402670E-01
    0.26042236871271853133E-01
    0.23245629105226366107E-01
    0.23874058322829294632E-01
    0.25943327656156429939E-01
    0.24751435181215364345E-01
    0.26557518328253308659E-01
    0.26676819023197764075E-01
    0.27200681501226686015E-01
    0.26853212568346281064E-01
    0.26794015997041835397E-01
    0.25509804809228535383E-01
    0.24146083658569929969E-01
    0.24718705890876706277E-01
    0.23135610724498999885E-01
    0.21675006451480762631E-01
    0.19678017782508872707E-01
    0.20544573113832231837E-01
    0.31868993344342060048E-01
    0.32402348719701261348E-01
    0.34300283359324092169E-01
    0.33191180125944588775E-01
    0.34492787839442359821E-01
    0.33807271075455183618E-01
    0.32617557090932065844E-01
    0.33220501716021727523E-01
    0.31449128764449114926E-01
    0.29592179316509488463E-01
    0.26406621146665684718E-01
    0.28029663963446159458E-01
    0.24717004239103397556E-01
    0.22792014414719050097E-01
    0.19991193282490569982E-01
    0.21232455945434661887E-01
    0.70506983135910014648E-01
    0.63446744783029765391E-01
    0.59159366550754266534E-01
    0.66782788060040454425E-01
    0.61187928873011110387E-01
    0.61160186886786947758E-01
    0.54716416485620290866E-01
    0.51450985292115516967E-01
    0.53275076766759382751E-01
    0.58824631561988791062E-01
    0.42557470352858298157E-01
    0.45878255573496826147E-01
    0.38695246456061968554E-01
    0.40884716198686985034E-01
    0.46120838054957834229E-01
    0.39848741804150364376E-01
    0.68635555061370145946E-01
    0.79859481812094762487E-01
    0.87694888442367127657E-01
    0.72592229130145957683E-01
    0.70347620848744407684E-01
    0.75330358540628833408E-01
    0.83585750524573593223E-01
    0.40017030497717667736E-01
    0.39020388516904147558E-01
    0.34945448998259631690E-01
    0.34191757034721388664E-01
    0.36502821148915572114E-01
    0.41061535163764942280E-01
    0.51458946991908109669E-01
    0.61398542874088052335E-01
    0.53533833947491907268E-01
    0.59899271663917050268E-01
    0.51206024840293483391E-01
    0.56119788415377958035E-01
    0.72962310437750449443E-01
    0.73612611457778864832E-01
    0.81470876209657941414E-01
    0.81419287914086480029E-01
    0.71551051274590937723E-01
    0.43184740032955498679E-01
    0.40756860677716860719E-01
    0.34327979029878281925E-01
    0.40472502512200830838E-01
    0.36808191531218330261E-01
    0.36418450005602523434E-01
    0.50220917741939041790E-01
    0.39507146611563126459E-01
    0.42760631659983741604E-01
    0.47431917669030071449E-01
    0.47439036076088292315E-01
    0.40125007893176800611E-01
    0.42724110593215659792E-01
    0.30021009922733710162E-01
    0.32703139452179612323E-01
    0.27827137653389295846E-01
    0.33173698463247934531E-01
    0.34789647981875303218E-01
    0.28186591282920784446E-01
    0.29628572115959143918E-01
    0.40237444495245806853E-01
    0.45012177997439686838E-01
    0.38115235138181810526E-01
    0.47237311108478188815E-01
    0.44600514478346342528E-01
    0.38203289219037650515E-01
    0.40813159697160344974E-01
    0.54908356284544851400E-01
    0.59128229161341770703E-01
    0.51015184146559380829E-01
    0.60727888343596776732E-01
    0.63680321303675471722E-01
    0.53924982288867523428E-01
    0.51782896736345417066E-01
    0.26890623386242738097E-01
    0.26079936944076658606E-01
    0.23386088588186509235E-01
    0.29112024003970522062E-01
    0.28662992374393184841E-01
    0.24100566906942802459E-01
    0.24551942607130877033E-01
    0.63365442365770185962E-01
    0.70487335895111857820E-01
    0.74957716848830416301E-01
    0.66445967361730695622E-01
    0.77827964076799538429E-01
    0.65753430068398205366E-01
    0.54584502270011221736E-01
    0.60826518136208033993E-01
    0.62782778428634861134E-01
    0.54011274424637684133E-01
    0.58087262062125166739E-01
    0.45738364145245943848E-01
    0.54868802426142476714E-01
    0.51825583612515227494E-01
    0.50213614802510166124E-01
    0.47166871589577837043E-01
    0.31160112056023224480E-01
    0.34004652385382867774E-01
    0.31112814588517813397E-01
    0.33750268080712506058E-01
    0.35343105356581118459E-01
    0.53144361340804829874E-01
    0.62604240442943936973E-01
    0.55731657625830953451E-01
    0.57161885206989199171E-01
    0.62463216732536325226E-01
    0.40417674892587206192E-01
    0.44519613429991639064E-01
    0.45876137634538599608E-01
    0.39330978100310581835E-01
    0.42038490948318477103E-01
    0.64332838778212886321E-01
    0.56460407154888356263E-01
    0.62687007568183572559E-01
    0.54824676862134866240E-01
    0.58123435407471765735E-01
    0.38269594834551237672E-01
    0.45493726807594794814E-01
    0.40627869869207383635E-01
    0.40861924849793743175E-01
    0.44724717518223183754E-01
    0.70280287520986764460E-01
    0.66348210520937228596E-01
    0.71860209572692984592E-01
    0.66946454094064883344E-01
    0.77235470044822701619E-01
    0.30596332390822652408E-01
    0.36733159501640820499E-01
    0.32987854319081570675E-01
    0.32129885647452741115E-01
    0.35310781871419033573E-01
    0.30351612493842071439E-01
    0.28172535691105289601E-01
    0.30696935373916794942E-01
    0.28400245250944627234E-01
    0.32493960385529978285E-01
    0.86766860397378034464E-01
    0.73172814030353416914E-01
    0.79863218363028426472E-01
    0.70994531967275967266E-01
    0.73443745476493432767E-01
    0.45561315558969084361E-01
    0.45081243348240818136E-01
    0.50751044987395035890E-01
    0.49253886827702833551E-01
    0.52819299911877157228E-01
    0.59132953750035119334E-01
    0.53200266144084462638E-01
    0.53236621894076865957E-01
    0.59202593403730498223E-01
    0.87333284946865083476E-01
    0.91142523250575660509E-01
    0.91528675405582446412E-01
    0.47684627526013219356E-01
    0.38873408736871888081E-01
    0.43815825534277409725E-01
    0.28176950491894028200E-01
    0.29528743307527104134E-01
    0.33017138290303907344E-01
    0.32553677752918383503E-01
    0.32898677539422674365E-01
    0.35703398618281888266E-01
    0.36270874130283160819E-01
    0.38572545207304881343E-01
    0.43138370030097447638E-01
    0.48319905475548555196E-01
    0.47226517176019625066E-01
    0.51607540432071247194E-01
    0.64757278844196200507E-01
    0.61010317528149865529E-01
    0.76024385046824183298E-01
    0.66770529134287034956E-01
    0.45915575422671120465E-01
    0.38337259432862653974E-01
    0.39739886476469893362E-01
    0.66088998192043085789E-01
    0.60984961454837130490E-01
    0.32038782059065427921E-01
    0.28890975944442769813E-01
    0.27381512214230005475E-01
    0.42420736204771207489E-01
    0.37087272105718445403E-01
    0.36589592817803044678E-01
    0.50030219087506502817E-01
    0.51896247442151682838E-01
    0.43025066416410212566E-01
    0.58376151987988227077E-01
    0.51199349074864355935E-01
    0.50061771467636302646E-01
    0.36455698844009003234E-01
    0.37054771714969875207E-01
    0.30959912178750902123E-01
    0.65585570877295773506E-01
    0.62007147618650934606E-01
    0.55361518856587653425E-01
    0.29751680764421091496E-01
    0.29157024748252931973E-01
    0.25101430608526726501E-01
    0.28420683071048540719E-01
    0.26283244065170581483E-01
    0.23993058361086890690E-01
    0.59633823353942086443E-01
    0.76501321808412986458E-01
    0.67654505928215619148E-01
    0.64753541540488221417E-01
    0.43960828010172287028E-01
    0.57046831960967464559E-01
    0.50044047737658504948E-01
    0.48804498380946907676E-01
    0.36314856473689448302E-01
    0.45858555509520546045E-01
    0.42864061415565091195E-01
    0.38956799201417133260E-01
    0.69541327196898330976E-01
    0.73367874888297712754E-01
    0.83045857433492561994E-01
    0.57268280513453936886E-01
    0.55259129888663584274E-01
    0.34982076035746864640E-01
    0.37076649632287711489E-01
    0.25636232715695362466E-01
    0.26799815684183027342E-01
    0.48735132264204256147E-01
    0.47076335378479342020E-01
    0.21797788958716458885E-01
    0.22165557622281072819E-01
    0.49553166950833386906E-01
    0.36926019941332537122E-01
    0.36694418900293249153E-01
    0.67702241837443083439E-01
    0.31647535459511724754E-01
    0.48663842063720472164E-01
    0.78426890094930312713E-01
    0.33403670322654739622E-01
    0.66596446516358334677E-01
    0.48393566427269434083E-01
    0.55725112216203354087E-01
    0.45335644112930333083E-01
    0.55868600224863881887E-01
    0.31730037522708483266E-01
    0.33946009965872846192E-01
    0.43713641266979318123E-01
    0.52901389384209011879E-01
    0.61585733070373294140E-01
    0.38771883975580366533E-01
    0.62637418242191128526E-01
    0.53676293494998757183E-01
    0.87608168961419360943E-01
    0.36423223538565162316E-01
    0.30330544055527441233E-01
    0.28812348695949979716E-01
    0.39502788220545766162E-01
    0.38380499851295976632E-01
    0.21814608349500566598E-01
    0.20952555222367240384E-01
    0.17672595152071805813E-01
    0.17947564846644142866E-01
    0.36350784273391570367E-01
    0.43085115337029189497E-01
    0.49504730906050294081E-01
    0.54378526049842466905E-01
    0.54953600163907989629E-01
    0.51965668414836248268E-01
    0.45990600367648223901E-01
    0.41749918178145661862E-01
    0.43610077233956483223E-01
    0.42742164009599355190E-01
    0.39904024079735631036E-01
    0.35495052475062661979E-01
    0.30723035537982404386E-01
    0.25985462516300586455E-01
    0.22785968777814077230E-01
    0.24282326322524687423E-01
    0.24883451289297656150E-01
    0.24798851520285856292E-01
    0.23626417482879316645E-01
    0.22046056694248385849E-01
    0.19878620654476011204E-01
    0.30684176474949940994E-01
    0.31724112166438236948E-01
    0.31225689865072833729E-01
    0.29693785587663133752E-01
    0.27086910573613950243E-01
    0.24098984170601397969E-01
    0.20898409576678111249E-01
