# vtk DataFile Version 3.0
LAPLACIEN  2D
ASCII
DATASET UNSTRUCTURED_GRID
 POINTS         391  float
  0.50371505999999999       0.50367786999999997        0.0000000000000000     
  0.29013556000000001       0.29014535000000002        0.0000000000000000     
  0.70165584999999997       0.71206597999999999        0.0000000000000000     
  0.70304188999999995       0.30176619999999998        0.0000000000000000     
  0.30920671999999999       0.71149227999999998        0.0000000000000000     
  0.79044983999999996       0.49884783999999999        0.0000000000000000     
  0.49102621000000002       0.20968644000000000        0.0000000000000000     
  0.49912957000000002       0.77208717000000004        0.0000000000000000     
  0.21724072999999999       0.48989389000000000        0.0000000000000000     
  0.83255933999999998       0.83046598000000005        0.0000000000000000     
  0.16646774000000000       0.17015694000000001        0.0000000000000000     
  0.83054514999999995       0.16736480000000001        0.0000000000000000     
  0.16953130999999999       0.83265739000000005        0.0000000000000000     
  0.42166445000000002       0.36345201999999999        0.0000000000000000     
  0.64462200999999997       0.56347807999999999        0.0000000000000000     
  0.35324633999999999       0.56311191000000005        0.0000000000000000     
  0.65456411000000003       0.84856860999999995        0.0000000000000000     
  0.35141477999999998       0.15563974000000000        0.0000000000000000     
  0.15290967000000000       0.35206625000000003        0.0000000000000000     
  0.82942241000000005       0.34936866000000000        0.0000000000000000     
  0.84390527000000004       0.64441694999999999        0.0000000000000000     
  0.63699174999999997       0.14284276000000001        0.0000000000000000     
  0.15620682999999999       0.64648446999999998        0.0000000000000000     
  0.36426062999999997       0.85756310999999996        0.0000000000000000     
  0.63489340999999999       0.40519052000000000        0.0000000000000000     
  0.52518872999999999       0.65957078000000002        0.0000000000000000     
  0.32158959999999998       0.42298103999999997        0.0000000000000000     
  0.58861710000000000       0.31711036999999997        0.0000000000000000     
  0.42078418000000001       0.69497151999999995        0.0000000000000000     
  0.48608786999999998       0.89334152000000000        0.0000000000000000     
   9.7084320000000002E-002  0.50000000000000000        0.0000000000000000     
  0.90291568000000000       0.50000000000000000        0.0000000000000000     
  0.51392453000000005       0.10668648999999999        0.0000000000000000     
  0.59792566999999996       0.73122754000000001        0.0000000000000000     
  0.74510058999999995       0.41124730999999998        0.0000000000000000     
  0.73212551999999997       0.90191560000000004        0.0000000000000000     
   9.7784830000000003E-002  0.26957329000000002        0.0000000000000000     
  0.26711221000000002        9.8671499999999995E-002   0.0000000000000000     
  0.90191560000000004       0.26787448000000003        0.0000000000000000     
  0.90118569000000004       0.73039821000000005        0.0000000000000000     
  0.73122947000000005        9.8017859999999998E-002   0.0000000000000000     
   9.8084400000000002E-002  0.73212551999999997        0.0000000000000000     
  0.26957329000000002       0.90221516999999996        0.0000000000000000     
  0.39283522999999998       0.25360379000000000        0.0000000000000000     
  0.74480864000000002       0.60495284999999999        0.0000000000000000     
  0.25505132000000003       0.60593640999999998        0.0000000000000000     
  0.52159297999999998       0.40671636000000000        0.0000000000000000     
  0.40768852000000000       0.47699891000000000        0.0000000000000000     
   9.1467049999999994E-002   9.1876959999999994E-002   0.0000000000000000     
  0.90842484999999995       0.90819225000000003        0.0000000000000000     
  0.90820104999999995        9.1566729999999999E-002   0.0000000000000000     
   9.1807449999999999E-002  0.90843574000000005        0.0000000000000000     
  0.27098960000000000       0.20527094000000001        0.0000000000000000     
  0.73457293999999995       0.79835387000000002        0.0000000000000000     
  0.79817773000000003       0.25713470999999999        0.0000000000000000     
  0.20747797000000001       0.72863946000000002        0.0000000000000000     
  0.20175195000000001       0.27583914999999998        0.0000000000000000     
  0.79603889000000005       0.72159035000000005        0.0000000000000000     
  0.71761666000000002       0.19748431999999999        0.0000000000000000     
  0.28462607000000001       0.80251899999999998        0.0000000000000000     
  0.69134598999999997       0.49261972999999998        0.0000000000000000     
  0.44720578999999999       0.58582935999999997        0.0000000000000000     
  0.24242269999999999       0.37228174000000003        0.0000000000000000     
  0.38265623999999998       0.93072131999999996        0.0000000000000000     
  0.60971754000000000       0.91988369000000003        0.0000000000000000     
   7.9163609999999995E-002  0.60979116000000000        0.0000000000000000     
  0.92010649000000000       0.61081183999999999        0.0000000000000000     
  0.61954008999999999        7.1530830000000004E-002   0.0000000000000000     
  0.91882012999999996       0.38917363999999999        0.0000000000000000     
  0.39086346000000000        8.0652249999999995E-002   0.0000000000000000     
   7.9183480000000001E-002  0.38966213000000000        0.0000000000000000     
  0.59114111999999996       0.49294315000000000        0.0000000000000000     
  0.63337980999999999       0.64485914000000000        0.0000000000000000     
  0.50012352000000004       0.29676539000000002        0.0000000000000000     
  0.82552601000000003       0.92753492000000004        0.0000000000000000     
  0.92774772999999999       0.82498556999999995        0.0000000000000000     
   7.1970870000000006E-002  0.17510291000000000        0.0000000000000000     
  0.17422821999999999        7.2635640000000001E-002   0.0000000000000000     
  0.82510813000000005        7.2134840000000006E-002   0.0000000000000000     
  0.92754665000000003       0.17446275999999999        0.0000000000000000     
  0.17501022999999999       0.92789951999999998        0.0000000000000000     
   7.2464680000000004E-002  0.82554053000000005        0.0000000000000000     
  0.30731587999999999       0.50885354999999999        0.0000000000000000     
  0.59033407999999998       0.22171178999999999        0.0000000000000000     
  0.40109191999999999       0.78725542000000004        0.0000000000000000     
  0.35420917000000002       0.63754104000000000        0.0000000000000000     
  0.15983976999999999       0.56665573000000002        0.0000000000000000     
  0.84108459999999996       0.56757886999999996        0.0000000000000000     
  0.83902096000000004       0.43344338999999998        0.0000000000000000     
  0.43230028999999998       0.16004268999999999        0.0000000000000000     
  0.57536027999999995       0.83041363999999995        0.0000000000000000     
  0.15771898000000001       0.42747892999999998        0.0000000000000000     
  0.34021692999999997       0.34221559000000001        0.0000000000000000     
  0.56002271999999997       0.57501117999999996        0.0000000000000000     
  0.65344329000000001       0.78147597999999996        0.0000000000000000     
   0.0000000000000000        0.0000000000000000        0.0000000000000000     
   1.0000000000000000        0.0000000000000000        0.0000000000000000     
   1.0000000000000000        1.0000000000000000        0.0000000000000000     
   0.0000000000000000        1.0000000000000000        0.0000000000000000     
  0.11111111000000000        0.0000000000000000        0.0000000000000000     
  0.22222222000000000        0.0000000000000000        0.0000000000000000     
  0.33333332999999998        0.0000000000000000        0.0000000000000000     
  0.44444444000000000        0.0000000000000000        0.0000000000000000     
  0.55555555999999995        0.0000000000000000        0.0000000000000000     
  0.66666667000000002        0.0000000000000000        0.0000000000000000     
  0.77777777999999997        0.0000000000000000        0.0000000000000000     
  0.88888889000000004        0.0000000000000000        0.0000000000000000     
   1.0000000000000000       0.11111111000000000        0.0000000000000000     
   1.0000000000000000       0.22222222000000000        0.0000000000000000     
   1.0000000000000000       0.33333332999999998        0.0000000000000000     
   1.0000000000000000       0.44444444000000000        0.0000000000000000     
   1.0000000000000000       0.55555555999999995        0.0000000000000000     
   1.0000000000000000       0.66666667000000002        0.0000000000000000     
   1.0000000000000000       0.77777777999999997        0.0000000000000000     
   1.0000000000000000       0.88888889000000004        0.0000000000000000     
  0.88888889000000004        1.0000000000000000        0.0000000000000000     
  0.77777777999999997        1.0000000000000000        0.0000000000000000     
  0.66666667000000002        1.0000000000000000        0.0000000000000000     
  0.55555555999999995        1.0000000000000000        0.0000000000000000     
  0.44444444000000000        1.0000000000000000        0.0000000000000000     
  0.33333332999999998        1.0000000000000000        0.0000000000000000     
  0.22222222000000000        1.0000000000000000        0.0000000000000000     
  0.11111111000000000        1.0000000000000000        0.0000000000000000     
   0.0000000000000000       0.11111111000000000        0.0000000000000000     
   0.0000000000000000       0.22222222000000000        0.0000000000000000     
[...]
 CELL_DATA         354
 SCALARS V float
 LOOKUP_TABLE default
    0.30851755660993324115E-01
    0.40782289670359808675E-01
    0.22326763053888545874E-01
    0.18622763678663684789E-01
    0.33610992632335870423E-01
    0.36268365831341173311E-01
    0.43314385597859952903E-01
    0.39490814478428663825E-01
    0.46980264170777968902E-01
    0.50855240421424814656E-01
    0.58524646977334962572E-01
    0.54337794862547174335E-01
    0.60166219755568184357E-01
    0.59181096607479700966E-01
    0.56936365655258752705E-01
    0.58292765850381574044E-01
    0.54233685258914046678E-01
    0.50199122950775144913E-01
    0.43970858357249953396E-01
    0.46851597104282723116E-01
    0.42662569378326908875E-01
    0.43880956258532617664E-01
    0.47124670115200502363E-01
    0.45331377868023998989E-01
    0.47490695730752728598E-01
    0.46472084982974531941E-01
    0.43924565887211594606E-01
    0.45354456902136561225E-01
    0.41820503724660146316E-01
    0.38794396926189259056E-01
    0.33564342704973160192E-01
    0.36223221113176148900E-01
    0.30995303127408245503E-01
    0.28282805127981047039E-01
    0.24229807924901106131E-01
    0.26042293934149189638E-01
    0.23245715126622965713E-01
    0.23874141017966026002E-01
    0.25943457285587910588E-01
    0.24751543502070649794E-01
    0.26557690249376486591E-01
    0.26676975048093330006E-01
    0.27200858347894953798E-01
    0.26853365837142824379E-01
    0.26794164087945628733E-01
    0.25509935416264055419E-01
    0.24146224908538800602E-01
    0.24718847391215187370E-01
    0.23135732050223397488E-01
    0.21675100077807138432E-01
    0.19678078037769095032E-01
    0.20544639180764712183E-01
    0.31869119484581105717E-01
    0.32402462704013354489E-01
    0.34300444666809329353E-01
    0.33191325418612416254E-01
    0.34493003339135366869E-01
    0.33807465554312410294E-01
    0.32617715756933361726E-01
    0.33220657338852613294E-01
    0.31449295959756415342E-01
    0.29592322229582398996E-01
    0.26406765631878308803E-01
    0.28029794672474593609E-01
    0.24717130572432896574E-01
    0.22792102133305125466E-01
    0.19991234212095101985E-01
    0.21232513215602502599E-01
    0.70507015649074855634E-01
    0.63446701121417287128E-01
    0.59159185491351504171E-01
    0.66782789461924854657E-01
    0.61187780077714290505E-01
    0.61160267677202305447E-01
    0.54716432739113876615E-01
    0.51450896547813665394E-01
    0.53274958050117726671E-01
    0.58824562756985568357E-01
    0.42557543832460534294E-01
    0.45878337108915125120E-01
    0.38695239754614745020E-01
    0.40884752388842454662E-01
    0.46120825967147560664E-01
    0.39848863187161728816E-01
    0.68635496114166277826E-01
    0.79859132273935012902E-01
    0.87693739315256105660E-01
    0.72592173118475933347E-01
    0.70347535058287835597E-01
    0.75330378216980964368E-01
    0.83585150378380601577E-01
    0.40016922041996805248E-01
    0.39020338919054549376E-01
    0.34945437072404675338E-01
    0.34191764154125954545E-01
    0.36502811982410267311E-01
    0.41061405714274606948E-01
    0.51458882176032866296E-01
    0.61398546607113198281E-01
    0.53533834502455371340E-01
    0.59899171015044244681E-01
    0.51206140113014678161E-01
    0.56119708584861517642E-01
    0.72962122977533017121E-01
    0.73612398822393079745E-01
    0.81470721970767684406E-01
    0.81419174322829496182E-01
    0.71551045674821511788E-01
    0.43184716301840286867E-01
    0.40756889988863939656E-01
    0.34327878103999481807E-01
    0.40472523022596240683E-01
    0.36808145073647748069E-01
    0.36418467044224633877E-01
    0.50220788637228612472E-01
    0.39507116076506240687E-01
    0.42760624151060390441E-01
    0.47431949413520781145E-01
    0.47438934271116464658E-01
    0.40125132540594431185E-01
    0.42724173330877801558E-01
    0.30021035275022769917E-01
    0.32703177118835240200E-01
    0.27827165905460631012E-01
    0.33173636858522273507E-01
    0.34789604708494570318E-01
    0.28186694714401390460E-01
    0.29628650591943764270E-01
    0.40237497527789913010E-01
    0.45012211087800610421E-01
    0.38115271485542195906E-01
    0.47237209313418751511E-01
    0.44600447332686414537E-01
    0.38203402433144031947E-01
    0.40813261491289019867E-01
    0.54908344088169205865E-01
    0.59128243990133541597E-01
    0.51015206328528572843E-01
    0.60727727359330373191E-01
    0.63680180282662660063E-01
    0.53925108282049709352E-01
    0.51783054247511034474E-01
    0.26890668003501195377E-01
    0.26079988739825504807E-01
    0.23386117400464055682E-01
    0.29111984329389904713E-01
    0.28662966200815289536E-01
    0.24100649593926330022E-01
    0.24552027013740814615E-01
    0.63365450090230729385E-01
    0.70487302693105560736E-01
    0.74957526666118864944E-01
    0.66445886927208944184E-01
    0.77827759336106111521E-01
    0.65753479550930166164E-01
    0.54584314669500935691E-01
    0.60826462781791351686E-01
    0.62782821366713426059E-01
    0.54011137989408028459E-01
    0.58087182500342039726E-01
    0.45738199866825493545E-01
    0.54868936494938236326E-01
    0.51825637664192056309E-01
    0.50213570761712254809E-01
    0.47166829272297060294E-01
    0.31160007916822225760E-01
    0.34004603689645578057E-01
    0.31112687395005517860E-01
    0.33750291639673517252E-01
    0.35343108605573381187E-01
    0.53144150970018802504E-01
    0.62604204138948127412E-01
    0.55731596864619870058E-01
    0.57161684218484963560E-01
    0.62463190063065221480E-01
    0.40417554128618457532E-01
    0.44519627877443859743E-01
    0.45876212044356094732E-01
    0.39330845932342248239E-01
    0.42038494700446508989E-01
    0.64332873298344264712E-01
    0.56460267202943170695E-01
    0.62686960767591073940E-01
    0.54824533275762768469E-01
    0.58123449487466609387E-01
    0.38269463723043205261E-01
    0.45493771407833588638E-01
    0.40627871480297027273E-01
    0.40861809013709747551E-01
    0.44724740664491835496E-01
    0.70280278967783577082E-01
    0.66348000470041690324E-01
    0.71860171272338818627E-01
    0.66946472664802206265E-01
    0.77235241817708966128E-01
    0.30596234278602980894E-01
    0.36733222752582263271E-01
    0.32987885324275399712E-01
    0.32129791258392624564E-01
    0.35310804933619904800E-01
    0.30351724400767356865E-01
    0.28172475835185940146E-01
    0.30696984482179043296E-01
    0.28400288048152318165E-01
    0.32494028686339861134E-01
    0.86766123913202944373E-01
    0.73172810806098109726E-01
    0.79862938254785797998E-01
    0.70994438247401536746E-01
    0.73443668566355035932E-01
    0.45561283524677864687E-01
    0.45081271621736133948E-01
    0.50751051380262625357E-01
    0.49253861447478120006E-01
    0.52819268929458061679E-01
    0.59132997057765590565E-01
    0.53200118729908034421E-01
    0.53236601861950803849E-01
    0.59202520311480592852E-01
    0.87332459595314965162E-01
    0.91141226466563196595E-01
    0.91527125518067117826E-01
    0.47684646644455382092E-01
    0.38873414508494436026E-01
    0.43815805878175004273E-01
    0.28177063256859303381E-01
    0.29528719213525716353E-01
    0.33017070007549866040E-01
    0.32553606077533048246E-01
    0.32898650597783435368E-01
    0.35703342445119121140E-01
    0.36270871673232063515E-01
    0.38572410681323929249E-01
    0.43138330570283031640E-01
    0.48319819402591848712E-01
    0.47226503102369234155E-01
    0.51607336831498470953E-01
    0.64757450723321091646E-01
    0.61010213700192605923E-01
    0.76023964898368504017E-01
    0.66770358653178471520E-01
    0.45915565906069988333E-01
    0.38337261417891704829E-01
    0.39739965279637724793E-01
    0.66088958987699800152E-01
    0.60985064419257425938E-01
    0.32038729137488390630E-01
    0.28890906883357464485E-01
    0.27381594158597009209E-01
    0.42420680972462210256E-01
    0.37087218466551302720E-01
    0.36589676292351408504E-01
    0.50030118684079451230E-01
    0.51896071157496996562E-01
    0.43025191339664217716E-01
    0.58375958608004471784E-01
    0.51199318110281860639E-01
    0.50061892358989459884E-01
    0.36455635617215952082E-01
    0.37054666590390118730E-01
    0.30960016302687423662E-01
    0.65585403367831085486E-01
    0.62006989022195896366E-01
    0.55361664344561155315E-01
    0.29751638369975887122E-01
    0.29156956391285064611E-01
    0.25101518281891308654E-01
    0.28420662149091339282E-01
    0.26283210004250483205E-01
    0.23993139258217135307E-01
    0.59633869368811015521E-01
    0.76500955626376335172E-01
    0.67654496619512588529E-01
    0.64753630099935677311E-01
    0.43960894107068430869E-01
    0.57046661953836785841E-01
    0.50044001075123356603E-01
    0.48804581105970093469E-01
    0.36314909528573156849E-01
    0.45858349541755695500E-01
    0.42863964217275243862E-01
    0.38956898233441929202E-01
    0.69541208566758674903E-01
    0.73367890823462553196E-01
    0.83045353066447585855E-01
    0.57268263099795678472E-01
    0.55259217778176425440E-01
    0.34982088769781184701E-01
    0.37076648898029633539E-01
    0.25636246692017916615E-01
    0.26799816686732192555E-01
    0.48735108444721432497E-01
    0.47076332783440921759E-01
    0.21797797869915931657E-01
    0.22165565704449455287E-01
    0.49553070939064192135E-01
    0.36925994716781623817E-01
    0.36694378836865375326E-01
    0.67702144829600019449E-01
    0.31647505186301168323E-01
    0.48663845646636560982E-01
    0.78426955506265993989E-01
    0.33403750012611886644E-01
    0.66596432439109704005E-01
    0.48393619929839939986E-01
    0.55725032450264680439E-01
    0.45335811121077415620E-01
    0.55868481575244863246E-01
    0.31729960493196637805E-01
    0.33945956441577190832E-01
    0.43713573756085651045E-01
    0.52901252896825429195E-01
    0.61585551052332807020E-01
    0.38771789636601133866E-01
    0.62637366038489766806E-01
    0.53676169236683883568E-01
    0.87607487122578667216E-01
    0.36423228433896948086E-01
    0.30330616661930251410E-01
    0.28812549005221500115E-01
    0.39502929601373706903E-01
    0.38380734043848313553E-01
    0.21814672963407090445E-01
    0.20952693207763595923E-01
    0.17672694441640175028E-01
    0.17947640843603517719E-01
    0.36350905191524604532E-01
    0.43085382627884069584E-01
    0.49505037834608862923E-01
    0.54378886526723388406E-01
    0.54954000540634991012E-01
    0.51966034714940281813E-01
    0.45990812198280446588E-01
    0.41750187278167726068E-01
    0.43610407752252937363E-01
    0.42742480241788984030E-01
    0.39904298886997487117E-01
    0.35495272220743334657E-01
    0.30723224819377316364E-01
    0.25985557344518569328E-01
    0.22786118357022211445E-01
    0.24282520953554247861E-01
    0.24883650984554795543E-01
    0.24799058700553423124E-01
    0.23626599701118106145E-01
    0.22046226178038814958E-01
    0.19878736391929514166E-01
    0.30684387276268411393E-01
    0.31724359939130732100E-01
    0.31225929872196335479E-01
    0.29694005129924906650E-01
    0.27087097145758829569E-01
    0.24099155503075897489E-01
    0.20898508326794348194E-01
