# vtk DataFile Version 3.0
LAPLACIEN  2D
ASCII
DATASET UNSTRUCTURED_GRID
 POINTS         391  float
  0.50371505999999999       0.50367786999999997        0.0000000000000000     
  0.29013556000000001       0.29014535000000002        0.0000000000000000     
  0.70165584999999997       0.71206597999999999        0.0000000000000000     
  0.70304188999999995       0.30176619999999998        0.0000000000000000     
  0.30920671999999999       0.71149227999999998        0.0000000000000000     
  0.79044983999999996       0.49884783999999999        0.0000000000000000     
  0.49102621000000002       0.20968644000000000        0.0000000000000000     
  0.49912957000000002       0.77208717000000004        0.0000000000000000     
  0.21724072999999999       0.48989389000000000        0.0000000000000000     
  0.83255933999999998       0.83046598000000005        0.0000000000000000     
  0.16646774000000000       0.17015694000000001        0.0000000000000000     
  0.83054514999999995       0.16736480000000001        0.0000000000000000     
  0.16953130999999999       0.83265739000000005        0.0000000000000000     
  0.42166445000000002       0.36345201999999999        0.0000000000000000     
  0.64462200999999997       0.56347807999999999        0.0000000000000000     
  0.35324633999999999       0.56311191000000005        0.0000000000000000     
  0.65456411000000003       0.84856860999999995        0.0000000000000000     
  0.35141477999999998       0.15563974000000000        0.0000000000000000     
  0.15290967000000000       0.35206625000000003        0.0000000000000000     
  0.82942241000000005       0.34936866000000000        0.0000000000000000     
  0.84390527000000004       0.64441694999999999        0.0000000000000000     
  0.63699174999999997       0.14284276000000001        0.0000000000000000     
  0.15620682999999999       0.64648446999999998        0.0000000000000000     
  0.36426062999999997       0.85756310999999996        0.0000000000000000     
  0.63489340999999999       0.40519052000000000        0.0000000000000000     
  0.52518872999999999       0.65957078000000002        0.0000000000000000     
  0.32158959999999998       0.42298103999999997        0.0000000000000000     
  0.58861710000000000       0.31711036999999997        0.0000000000000000     
  0.42078418000000001       0.69497151999999995        0.0000000000000000     
  0.48608786999999998       0.89334152000000000        0.0000000000000000     
   9.7084320000000002E-002  0.50000000000000000        0.0000000000000000     
  0.90291568000000000       0.50000000000000000        0.0000000000000000     
  0.51392453000000005       0.10668648999999999        0.0000000000000000     
  0.59792566999999996       0.73122754000000001        0.0000000000000000     
  0.74510058999999995       0.41124730999999998        0.0000000000000000     
  0.73212551999999997       0.90191560000000004        0.0000000000000000     
   9.7784830000000003E-002  0.26957329000000002        0.0000000000000000     
  0.26711221000000002        9.8671499999999995E-002   0.0000000000000000     
  0.90191560000000004       0.26787448000000003        0.0000000000000000     
  0.90118569000000004       0.73039821000000005        0.0000000000000000     
  0.73122947000000005        9.8017859999999998E-002   0.0000000000000000     
   9.8084400000000002E-002  0.73212551999999997        0.0000000000000000     
  0.26957329000000002       0.90221516999999996        0.0000000000000000     
  0.39283522999999998       0.25360379000000000        0.0000000000000000     
  0.74480864000000002       0.60495284999999999        0.0000000000000000     
  0.25505132000000003       0.60593640999999998        0.0000000000000000     
  0.52159297999999998       0.40671636000000000        0.0000000000000000     
  0.40768852000000000       0.47699891000000000        0.0000000000000000     
   9.1467049999999994E-002   9.1876959999999994E-002   0.0000000000000000     
  0.90842484999999995       0.90819225000000003        0.0000000000000000     
  0.90820104999999995        9.1566729999999999E-002   0.0000000000000000     
   9.1807449999999999E-002  0.90843574000000005        0.0000000000000000     
  0.27098960000000000       0.20527094000000001        0.0000000000000000     
  0.73457293999999995       0.79835387000000002        0.0000000000000000     
  0.79817773000000003       0.25713470999999999        0.0000000000000000     
  0.20747797000000001       0.72863946000000002        0.0000000000000000     
  0.20175195000000001       0.27583914999999998        0.0000000000000000     
  0.79603889000000005       0.72159035000000005        0.0000000000000000     
  0.71761666000000002       0.19748431999999999        0.0000000000000000     
  0.28462607000000001       0.80251899999999998        0.0000000000000000     
  0.69134598999999997       0.49261972999999998        0.0000000000000000     
  0.44720578999999999       0.58582935999999997        0.0000000000000000     
  0.24242269999999999       0.37228174000000003        0.0000000000000000     
  0.38265623999999998       0.93072131999999996        0.0000000000000000     
  0.60971754000000000       0.91988369000000003        0.0000000000000000     
   7.9163609999999995E-002  0.60979116000000000        0.0000000000000000     
  0.92010649000000000       0.61081183999999999        0.0000000000000000     
  0.61954008999999999        7.1530830000000004E-002   0.0000000000000000     
  0.91882012999999996       0.38917363999999999        0.0000000000000000     
  0.39086346000000000        8.0652249999999995E-002   0.0000000000000000     
   7.9183480000000001E-002  0.38966213000000000        0.0000000000000000     
  0.59114111999999996       0.49294315000000000        0.0000000000000000     
  0.63337980999999999       0.64485914000000000        0.0000000000000000     
  0.50012352000000004       0.29676539000000002        0.0000000000000000     
  0.82552601000000003       0.92753492000000004        0.0000000000000000     
  0.92774772999999999       0.82498556999999995        0.0000000000000000     
   7.1970870000000006E-002  0.17510291000000000        0.0000000000000000     
  0.17422821999999999        7.2635640000000001E-002   0.0000000000000000     
  0.82510813000000005        7.2134840000000006E-002   0.0000000000000000     
  0.92754665000000003       0.17446275999999999        0.0000000000000000     
  0.17501022999999999       0.92789951999999998        0.0000000000000000     
   7.2464680000000004E-002  0.82554053000000005        0.0000000000000000     
  0.30731587999999999       0.50885354999999999        0.0000000000000000     
  0.59033407999999998       0.22171178999999999        0.0000000000000000     
  0.40109191999999999       0.78725542000000004        0.0000000000000000     
  0.35420917000000002       0.63754104000000000        0.0000000000000000     
  0.15983976999999999       0.56665573000000002        0.0000000000000000     
  0.84108459999999996       0.56757886999999996        0.0000000000000000     
  0.83902096000000004       0.43344338999999998        0.0000000000000000     
  0.43230028999999998       0.16004268999999999        0.0000000000000000     
  0.57536027999999995       0.83041363999999995        0.0000000000000000     
  0.15771898000000001       0.42747892999999998        0.0000000000000000     
  0.34021692999999997       0.34221559000000001        0.0000000000000000     
  0.56002271999999997       0.57501117999999996        0.0000000000000000     
  0.65344329000000001       0.78147597999999996        0.0000000000000000     
   0.0000000000000000        0.0000000000000000        0.0000000000000000     
   1.0000000000000000        0.0000000000000000        0.0000000000000000     
   1.0000000000000000        1.0000000000000000        0.0000000000000000     
   0.0000000000000000        1.0000000000000000        0.0000000000000000     
  0.11111111000000000        0.0000000000000000        0.0000000000000000     
  0.22222222000000000        0.0000000000000000        0.0000000000000000     
  0.33333332999999998        0.0000000000000000        0.0000000000000000     
  0.44444444000000000        0.0000000000000000        0.0000000000000000     
  0.55555555999999995        0.0000000000000000        0.0000000000000000     
  0.66666667000000002        0.0000000000000000        0.0000000000000000     
  0.77777777999999997        0.0000000000000000        0.0000000000000000     
  0.88888889000000004        0.0000000000000000        0.0000000000000000     
   1.0000000000000000       0.11111111000000000        0.0000000000000000     
   1.0000000000000000       0.22222222000000000        0.0000000000000000     
   1.0000000000000000       0.33333332999999998        0.0000000000000000     
   1.0000000000000000       0.44444444000000000        0.0000000000000000     
   1.0000000000000000       0.55555555999999995        0.0000000000000000     
   1.0000000000000000       0.66666667000000002        0.0000000000000000     
   1.0000000000000000       0.77777777999999997        0.0000000000000000     
   1.0000000000000000       0.88888889000000004        0.0000000000000000     
  0.88888889000000004        1.0000000000000000        0.0000000000000000     
  0.77777777999999997        1.0000000000000000        0.0000000000000000     
  0.66666667000000002        1.0000000000000000        0.0000000000000000     
  0.55555555999999995        1.0000000000000000        0.0000000000000000     
  0.44444444000000000        1.0000000000000000        0.0000000000000000     
  0.33333332999999998        1.0000000000000000        0.0000000000000000     
  0.22222222000000000        1.0000000000000000        0.0000000000000000     
  0.11111111000000000        1.0000000000000000        0.0000000000000000     
   0.0000000000000000       0.11111111000000000        0.0000000000000000     
   0.0000000000000000       0.22222222000000000        0.0000000000000000     
[...]
 CELL_DATA         354
 SCALARS V float
 LOOKUP_TABLE default
    0.30851805106382582805E-01
    0.40782355741753192890E-01
    0.22326800026192118731E-01
    0.18622795685235622731E-01
    0.33611000342199624791E-01
    0.36268388662834695479E-01
    0.43314451448393971600E-01
    0.39490854451657259050E-01
    0.46980332298089066967E-01
    0.50855300279819957987E-01
    0.58524744863614114321E-01
    0.54337882604210199777E-01
    0.60166290554392945489E-01
    0.59181178516026278214E-01
    0.56936456128638013308E-01
    0.58292857554444958701E-01
    0.54233764897857833498E-01
    0.50199177553067755864E-01
    0.43970877989454211499E-01
    0.46851633722070254451E-01
    0.42662612864221627351E-01
    0.43881002309227090663E-01
    0.47124737543238683080E-01
    0.45331436945498675140E-01
    0.47490789253769288836E-01
    0.46472170070648785578E-01
    0.43924628454245655262E-01
    0.45354521349378187911E-01
    0.41820571854027960290E-01
    0.38794453903732102618E-01
    0.33564390731470376827E-01
    0.36223265679689517493E-01
    0.30995352674234165347E-01
    0.28282837818920613521E-01
    0.24229817839449920014E-01
    0.26042312955519255485E-01
    0.23245743801146214608E-01
    0.23874168585178129343E-01
    0.25943500497113976266E-01
    0.24751579611492914579E-01
    0.26557747548174776009E-01
    0.26677027050550680687E-01
    0.27200917291073614668E-01
    0.26853416924291446943E-01
    0.26794213453468024300E-01
    0.25509978956716833354E-01
    0.24146271986921010594E-01
    0.24718894554875605468E-01
    0.23135772492559589231E-01
    0.21675131288560536835E-01
    0.19678098124467906238E-01
    0.20544661204430682971E-01
    0.31869161531376873076E-01
    0.32402500701907824276E-01
    0.34300498438202806084E-01
    0.33191373852081831886E-01
    0.34493075163442729614E-01
    0.33807530374052069400E-01
    0.32617768642432320991E-01
    0.33220709211576084086E-01
    0.31449351687047821802E-01
    0.29592369865110202537E-01
    0.26406813787817905864E-01
    0.28029838238330165995E-01
    0.24717172683686141482E-01
    0.22792131375105259550E-01
    0.19991247858304545676E-01
    0.21232532306562641733E-01
    0.70507026473333220262E-01
    0.63446686562713544566E-01
    0.59159125153186623014E-01
    0.66782789926516941681E-01
    0.61187730487744292074E-01
    0.61160294602169262834E-01
    0.54716438150248264405E-01
    0.51450866970684953905E-01
    0.53274918484041179634E-01
    0.58824539830634250959E-01
    0.42557568322068181632E-01
    0.45878364280023550825E-01
    0.38695237523345901720E-01
    0.40884764452025733339E-01
    0.46120821942122691706E-01
    0.39848903635751747876E-01
    0.68635476465544145719E-01
    0.79859015752656414833E-01
    0.87693356328266303112E-01
    0.72592154442237016854E-01
    0.70347506463644265962E-01
    0.75330384740835212853E-01
    0.83584950337155086708E-01
    0.40016885896905690645E-01
    0.39020322388708138239E-01
    0.34945433097730294048E-01
    0.34191766526516419178E-01
    0.36502808927380857307E-01
    0.41061362571658432952E-01
    0.51458860571661699246E-01
    0.61398547849895186712E-01
    0.53533834683413841771E-01
    0.59899137470266539118E-01
    0.51206178519596488863E-01
    0.56119681982971215961E-01
    0.72962060487306287793E-01
    0.73612327950052292014E-01
    0.81470670520890173250E-01
    0.81419136413831763588E-01
    0.71551043786665130542E-01
    0.43184708394757048699E-01
    0.40756899753663242136E-01
    0.34327844468201751393E-01
    0.40472529857496733485E-01
    0.36808129591706470474E-01
    0.36418472715311664412E-01
    0.50220745611373282524E-01
    0.39507105901191663655E-01
    0.42760621645790787559E-01
    0.47431959991270651600E-01
    0.47438900336904024635E-01
    0.40125174072490520094E-01
    0.42724194235565532418E-01
    0.30021043725147002201E-01
    0.32703189672281848810E-01
    0.27827175325124270389E-01
    0.33173616329637528599E-01
    0.34789590287327462614E-01
    0.28186729182403481853E-01
    0.29628676746029591893E-01
    0.40237515201928149289E-01
    0.45012222114924983762E-01
    0.38115283603652877487E-01
    0.47237175388943612730E-01
    0.44600424954338462047E-01
    0.38203440162721084838E-01
    0.40813295415518972831E-01
    0.54908340022178495077E-01
    0.59128248930984825260E-01
    0.51015213727140983069E-01
    0.60727673708548854381E-01
    0.63680133282934814343E-01
    0.53925150268033114620E-01
    0.51783106732899250590E-01
    0.26890682873596319369E-01
    0.26080006002715677704E-01
    0.23386127006530223887E-01
    0.29111971108575933342E-01
    0.28662957479301948149E-01
    0.24100677151154555056E-01
    0.24552055143872604515E-01
    0.63365452662522650518E-01
    0.70487291618317807207E-01
    0.74957463270908269992E-01
    0.66445860120843650010E-01
    0.77827691079059763135E-01
    0.65753496039239411886E-01
    0.54584252146645521886E-01
    0.60826444326323246548E-01
    0.62782835670226522229E-01
    0.54011092515502810707E-01
    0.58087155980572569014E-01
    0.45738145111245735730E-01
    0.54868981172300643201E-01
    0.51825655679389744102E-01
    0.50213556082258747892E-01
    0.47166815165798486875E-01
    0.31159973211531147297E-01
    0.34004587456614658592E-01
    0.31112645008594265461E-01
    0.33750299483879170337E-01
    0.35343109686126979174E-01
    0.53144080858870047790E-01
    0.62604192042770082094E-01
    0.55731576611147540246E-01
    0.57161617231930528238E-01
    0.62463181165139200490E-01
    0.40417513884977079863E-01
    0.44519632687162781493E-01
    0.45876236846150136861E-01
    0.39330801886737140616E-01
    0.42038495953142539230E-01
    0.64332884804105483489E-01
    0.56460220558311076389E-01
    0.62686945159085794010E-01
    0.54824485422112143040E-01
    0.58123454174144391360E-01
    0.38269420027306183529E-01
    0.45493786275457137602E-01
    0.40627872014658082678E-01
    0.40861770407962225149E-01
    0.44724748377296050239E-01
    0.70280276101543956435E-01
    0.66347930466615939737E-01
    0.71860158501911658435E-01
    0.66946478839018913609E-01
    0.77235165764927726784E-01
    0.30596201582635693117E-01
    0.36733243834926626592E-01
    0.32987895654180171556E-01
    0.32129759802006309377E-01
    0.35310812620464246403E-01
    0.30351761691779055585E-01
    0.28172455890731751271E-01
    0.30697000847266748408E-01
    0.28400302311889842610E-01
    0.32494051449648189700E-01
    0.86765878425172970889E-01
    0.73172809716228803811E-01
    0.79862844878951108618E-01
    0.70994407012321208983E-01
    0.73443642927871852222E-01
    0.45561272851598957900E-01
    0.45081281042831024275E-01
    0.50751053507072874105E-01
    0.49253852986333862551E-01
    0.52819258598620175138E-01
    0.59133011489260908777E-01
    0.53200069603479518965E-01
    0.53236595181861065540E-01
    0.59202495950003590497E-01
    0.87332184493729342334E-01
    0.91140794264608221420E-01
    0.91526608986620947017E-01
    0.47684653015513112084E-01
    0.38873416429739147959E-01
    0.43815799323217247130E-01
    0.28177100841915051627E-01
    0.29528711188490649325E-01
    0.33017047255563425345E-01
    0.32553582189256233259E-01
    0.32898641624564045616E-01
    0.35703323726938664129E-01
    0.36270870853069216155E-01
    0.38572365854307281985E-01
    0.43138317426325900605E-01
    0.48319790719427990755E-01
    0.47226498408675092466E-01
    0.51607268981206669278E-01
    0.64757507996627342028E-01
    0.61010179106269359084E-01
    0.76023824878370907521E-01
    0.66770301835986992089E-01
    0.45915562736936386956E-01
    0.38337262082659848139E-01
    0.39739991542364350163E-01
    0.66088945919149849617E-01
    0.60985098730432715786E-01
    0.32038711499715842590E-01
    0.28890883872816724293E-01
    0.27381621470822556375E-01
    0.42420662564829875185E-01
    0.37087200595889949217E-01
    0.36589704117640550751E-01
    0.50030085219649057804E-01
    0.51896012412386401114E-01
    0.43025232975956215209E-01
    0.58375894163483897648E-01
    0.51199307796322583719E-01
    0.50061932649229479164E-01
    0.36455614545129529092E-01
    0.37054631559302483867E-01
    0.30960051007082486224E-01
    0.65585347540384239529E-01
    0.62006936177972919733E-01
    0.55361712834136496408E-01
    0.29751624241750981165E-01
    0.29156933613895024554E-01
    0.25101547503870599853E-01
    0.28420655177759532317E-01
    0.26283198658976228423E-01
    0.23993166222624123796E-01
    0.59633884702858949711E-01
    0.76500833585661759395E-01
    0.67654493507491558768E-01
    0.64753659612343333896E-01
    0.43960916137272321169E-01
    0.57046605292967775269E-01
    0.50043985519904937709E-01
    0.48804608676241902077E-01
    0.36314927208877405274E-01
    0.45858280900643325073E-01
    0.42863931816838500566E-01
    0.38956931237185979389E-01
    0.69541169025641016987E-01
    0.73367896123707115885E-01
    0.83045184941230393294E-01
    0.57268257296408255075E-01
    0.55259247071253764227E-01
    0.34982093021362292706E-01
    0.37076648659403903252E-01
    0.25636251355879491332E-01
    0.26799817025753618072E-01
    0.48735100515077886540E-01
    0.47076331928266268445E-01
    0.21797800844758109806E-01
    0.22165568402692400335E-01
    0.49553038937089864679E-01
    0.36925986307930244723E-01
    0.36694365488040128764E-01
    0.67702112493649685421E-01
    0.31647495096113788249E-01
    0.48663846837408743229E-01
    0.78426977269251102465E-01
    0.33403776570673296420E-01
    0.66596427744582561981E-01
    0.48393637759934826637E-01
    0.55725005860815843284E-01
    0.45335866775331537526E-01
    0.55868442026333009487E-01
    0.31729934821432104197E-01
    0.33945938604196396193E-01
    0.43713551257511758241E-01
    0.52901207405325265110E-01
    0.61585490393871983317E-01
    0.38771758192916623564E-01
    0.62637348637864076473E-01
    0.53676127823034193443E-01
    0.87607259836518416862E-01
    0.36423230067715840763E-01
    0.30330640868945581146E-01
    0.28812615767064207045E-01
    0.39502976730879962863E-01
    0.38380812101120487245E-01
    0.21814694504016522020E-01
    0.20952739198099756823E-01
    0.17672727536072754817E-01
    0.17947666176148194261E-01
    0.36350945495109560079E-01
    0.43085471716304904466E-01
    0.49505140138654174509E-01
    0.54379006676756061478E-01
    0.54954133990453436776E-01
    0.51966156803395974206E-01
    0.45990882803250587862E-01
    0.41750276970809754862E-01
    0.43610517916324996468E-01
    0.42742585646382669218E-01
    0.39904390482291218767E-01
    0.35495345464871465302E-01
    0.30723287907482146886E-01
    0.25985588952145394215E-01
    0.22786168212957147450E-01
    0.24282585825586771450E-01
    0.24883717546522486630E-01
    0.24799127754859047468E-01
    0.23626660437130776737E-01
    0.22046282667978832348E-01
    0.19878774968377310728E-01
    0.30684457537849700592E-01
    0.31724442523788753956E-01
    0.31226009870207124125E-01
    0.29694078305201765389E-01
    0.27087159333107457826E-01
    0.24099212609112644068E-01
    0.20898541241336530266E-01
