# vtk DataFile Version 3.0
LAPLACIEN  2D
ASCII
DATASET UNSTRUCTURED_GRID
 POINTS         391  float
  0.50371505999999999       0.50367786999999997        0.0000000000000000     
  0.29013556000000001       0.29014535000000002        0.0000000000000000     
  0.70165584999999997       0.71206597999999999        0.0000000000000000     
  0.70304188999999995       0.30176619999999998        0.0000000000000000     
  0.30920671999999999       0.71149227999999998        0.0000000000000000     
  0.79044983999999996       0.49884783999999999        0.0000000000000000     
  0.49102621000000002       0.20968644000000000        0.0000000000000000     
  0.49912957000000002       0.77208717000000004        0.0000000000000000     
  0.21724072999999999       0.48989389000000000        0.0000000000000000     
  0.83255933999999998       0.83046598000000005        0.0000000000000000     
  0.16646774000000000       0.17015694000000001        0.0000000000000000     
  0.83054514999999995       0.16736480000000001        0.0000000000000000     
  0.16953130999999999       0.83265739000000005        0.0000000000000000     
  0.42166445000000002       0.36345201999999999        0.0000000000000000     
  0.64462200999999997       0.56347807999999999        0.0000000000000000     
  0.35324633999999999       0.56311191000000005        0.0000000000000000     
  0.65456411000000003       0.84856860999999995        0.0000000000000000     
  0.35141477999999998       0.15563974000000000        0.0000000000000000     
  0.15290967000000000       0.35206625000000003        0.0000000000000000     
  0.82942241000000005       0.34936866000000000        0.0000000000000000     
  0.84390527000000004       0.64441694999999999        0.0000000000000000     
  0.63699174999999997       0.14284276000000001        0.0000000000000000     
  0.15620682999999999       0.64648446999999998        0.0000000000000000     
  0.36426062999999997       0.85756310999999996        0.0000000000000000     
  0.63489340999999999       0.40519052000000000        0.0000000000000000     
  0.52518872999999999       0.65957078000000002        0.0000000000000000     
  0.32158959999999998       0.42298103999999997        0.0000000000000000     
  0.58861710000000000       0.31711036999999997        0.0000000000000000     
  0.42078418000000001       0.69497151999999995        0.0000000000000000     
  0.48608786999999998       0.89334152000000000        0.0000000000000000     
   9.7084320000000002E-002  0.50000000000000000        0.0000000000000000     
  0.90291568000000000       0.50000000000000000        0.0000000000000000     
  0.51392453000000005       0.10668648999999999        0.0000000000000000     
  0.59792566999999996       0.73122754000000001        0.0000000000000000     
  0.74510058999999995       0.41124730999999998        0.0000000000000000     
  0.73212551999999997       0.90191560000000004        0.0000000000000000     
   9.7784830000000003E-002  0.26957329000000002        0.0000000000000000     
  0.26711221000000002        9.8671499999999995E-002   0.0000000000000000     
  0.90191560000000004       0.26787448000000003        0.0000000000000000     
  0.90118569000000004       0.73039821000000005        0.0000000000000000     
  0.73122947000000005        9.8017859999999998E-002   0.0000000000000000     
   9.8084400000000002E-002  0.73212551999999997        0.0000000000000000     
  0.26957329000000002       0.90221516999999996        0.0000000000000000     
  0.39283522999999998       0.25360379000000000        0.0000000000000000     
  0.74480864000000002       0.60495284999999999        0.0000000000000000     
  0.25505132000000003       0.60593640999999998        0.0000000000000000     
  0.52159297999999998       0.40671636000000000        0.0000000000000000     
  0.40768852000000000       0.47699891000000000        0.0000000000000000     
   9.1467049999999994E-002   9.1876959999999994E-002   0.0000000000000000     
  0.90842484999999995       0.90819225000000003        0.0000000000000000     
  0.90820104999999995        9.1566729999999999E-002   0.0000000000000000     
   9.1807449999999999E-002  0.90843574000000005        0.0000000000000000     
  0.27098960000000000       0.20527094000000001        0.0000000000000000     
  0.73457293999999995       0.79835387000000002        0.0000000000000000     
  0.79817773000000003       0.25713470999999999        0.0000000000000000     
  0.20747797000000001       0.72863946000000002        0.0000000000000000     
  0.20175195000000001       0.27583914999999998        0.0000000000000000     
  0.79603889000000005       0.72159035000000005        0.0000000000000000     
  0.71761666000000002       0.19748431999999999        0.0000000000000000     
  0.28462607000000001       0.80251899999999998        0.0000000000000000     
  0.69134598999999997       0.49261972999999998        0.0000000000000000     
  0.44720578999999999       0.58582935999999997        0.0000000000000000     
  0.24242269999999999       0.37228174000000003        0.0000000000000000     
  0.38265623999999998       0.93072131999999996        0.0000000000000000     
  0.60971754000000000       0.91988369000000003        0.0000000000000000     
   7.9163609999999995E-002  0.60979116000000000        0.0000000000000000     
  0.92010649000000000       0.61081183999999999        0.0000000000000000     
  0.61954008999999999        7.1530830000000004E-002   0.0000000000000000     
  0.91882012999999996       0.38917363999999999        0.0000000000000000     
  0.39086346000000000        8.0652249999999995E-002   0.0000000000000000     
   7.9183480000000001E-002  0.38966213000000000        0.0000000000000000     
  0.59114111999999996       0.49294315000000000        0.0000000000000000     
  0.63337980999999999       0.64485914000000000        0.0000000000000000     
  0.50012352000000004       0.29676539000000002        0.0000000000000000     
  0.82552601000000003       0.92753492000000004        0.0000000000000000     
  0.92774772999999999       0.82498556999999995        0.0000000000000000     
   7.1970870000000006E-002  0.17510291000000000        0.0000000000000000     
  0.17422821999999999        7.2635640000000001E-002   0.0000000000000000     
  0.82510813000000005        7.2134840000000006E-002   0.0000000000000000     
  0.92754665000000003       0.17446275999999999        0.0000000000000000     
  0.17501022999999999       0.92789951999999998        0.0000000000000000     
   7.2464680000000004E-002  0.82554053000000005        0.0000000000000000     
  0.30731587999999999       0.50885354999999999        0.0000000000000000     
  0.59033407999999998       0.22171178999999999        0.0000000000000000     
  0.40109191999999999       0.78725542000000004        0.0000000000000000     
  0.35420917000000002       0.63754104000000000        0.0000000000000000     
  0.15983976999999999       0.56665573000000002        0.0000000000000000     
  0.84108459999999996       0.56757886999999996        0.0000000000000000     
  0.83902096000000004       0.43344338999999998        0.0000000000000000     
  0.43230028999999998       0.16004268999999999        0.0000000000000000     
  0.57536027999999995       0.83041363999999995        0.0000000000000000     
  0.15771898000000001       0.42747892999999998        0.0000000000000000     
  0.34021692999999997       0.34221559000000001        0.0000000000000000     
  0.56002271999999997       0.57501117999999996        0.0000000000000000     
  0.65344329000000001       0.78147597999999996        0.0000000000000000     
   0.0000000000000000        0.0000000000000000        0.0000000000000000     
   1.0000000000000000        0.0000000000000000        0.0000000000000000     
   1.0000000000000000        1.0000000000000000        0.0000000000000000     
   0.0000000000000000        1.0000000000000000        0.0000000000000000     
  0.11111111000000000        0.0000000000000000        0.0000000000000000     
  0.22222222000000000        0.0000000000000000        0.0000000000000000     
  0.33333332999999998        0.0000000000000000        0.0000000000000000     
  0.44444444000000000        0.0000000000000000        0.0000000000000000     
  0.55555555999999995        0.0000000000000000        0.0000000000000000     
  0.66666667000000002        0.0000000000000000        0.0000000000000000     
  0.77777777999999997        0.0000000000000000        0.0000000000000000     
  0.88888889000000004        0.0000000000000000        0.0000000000000000     
   1.0000000000000000       0.11111111000000000        0.0000000000000000     
   1.0000000000000000       0.22222222000000000        0.0000000000000000     
   1.0000000000000000       0.33333332999999998        0.0000000000000000     
   1.0000000000000000       0.44444444000000000        0.0000000000000000     
   1.0000000000000000       0.55555555999999995        0.0000000000000000     
   1.0000000000000000       0.66666667000000002        0.0000000000000000     
   1.0000000000000000       0.77777777999999997        0.0000000000000000     
   1.0000000000000000       0.88888889000000004        0.0000000000000000     
  0.88888889000000004        1.0000000000000000        0.0000000000000000     
  0.77777777999999997        1.0000000000000000        0.0000000000000000     
  0.66666667000000002        1.0000000000000000        0.0000000000000000     
  0.55555555999999995        1.0000000000000000        0.0000000000000000     
  0.44444444000000000        1.0000000000000000        0.0000000000000000     
  0.33333332999999998        1.0000000000000000        0.0000000000000000     
  0.22222222000000000        1.0000000000000000        0.0000000000000000     
  0.11111111000000000        1.0000000000000000        0.0000000000000000     
   0.0000000000000000       0.11111111000000000        0.0000000000000000     
   0.0000000000000000       0.22222222000000000        0.0000000000000000     
[...]
 CELL_DATA         354
 SCALARS V float
 LOOKUP_TABLE default
    0.30209833028459098965E-02
    0.69283171267239471169E-02
    0.22481254662726031165E-02
    0.22236219758245854769E-02
    0.34920535729026794605E-02
    0.39605278258593949042E-02
    0.13682139765924059699E-01
    0.83495734857048399535E-02
    0.15975484278786904885E-01
    0.18118401237453264641E-01
    0.21424424838944636923E-01
    0.20132475563260875812E-01
    0.21612175778126026249E-01
    0.21865871134100801909E-01
    0.21503689768292449935E-01
    0.21940020789938896595E-01
    0.20839703060642093130E-01
    0.19051892894489479841E-01
    0.12542456628246590605E-01
    0.17381891982564498522E-01
    0.97470378136588903262E-02
    0.12839515883480936975E-01
    0.15991213101961051363E-01
    0.14158792040368760323E-01
    0.16313643464714099734E-01
    0.15899577401724162423E-01
    0.11097901661354509645E-01
    0.14837830593999894180E-01
    0.73215825319949499189E-02
    0.55778132633709310087E-02
    0.33297679631453885006E-02
    0.37756479023218622246E-02
    0.30657568389244487829E-02
    0.27153584206014874138E-02
    0.23498713979907656819E-02
    0.25196123512015219242E-02
    0.22958145141971980294E-02
    0.23075502834882968654E-02
    0.24681973457485115175E-02
    0.23547998718159391870E-02
    0.24792698694079402626E-02
    0.25026094313853088080E-02
    0.25486506043429649551E-02
    0.25156472652953379768E-02
    0.25406138056051192319E-02
    0.23818837005776848439E-02
    0.22802856368216977562E-02
    0.23128593841467478404E-02
    0.22456994658353580073E-02
    0.21898121139504620955E-02
    0.21569659844755968009E-02
    0.21288655594626777583E-02
    0.31332793054444970510E-02
    0.31659956634815873862E-02
    0.34171324772421371105E-02
    0.32261237062012467977E-02
    0.33928246803983509554E-02
    0.33068673414747206882E-02
    0.31866595112016622704E-02
    0.32650022979448605452E-02
    0.30710286208192778823E-02
    0.28183617145157028108E-02
    0.24593891959397099628E-02
    0.26639644370298146830E-02
    0.23615258666742989027E-02
    0.22180284203404433685E-02
    0.20611299015389134871E-02
    0.21173125577949492189E-02
    0.20928775264700685138E-01
    0.20160711116049622599E-01
    0.19770944768104856126E-01
    0.20470371832525424693E-01
    0.20262178009983970728E-01
    0.20435691726665004830E-01
    0.18568842536234659440E-01
    0.16647024643162422475E-01
    0.17233299800646643268E-01
    0.19289370338251177195E-01
    0.11835535538953726592E-01
    0.14527713293703460248E-01
    0.50640450446674829116E-02
    0.96600979915360141864E-02
    0.14856702658951018159E-01
    0.68077193655817725901E-02
    0.20506037602631546624E-01
    0.19425900270427617217E-01
    0.16522487724180870416E-01
    0.20447749962226806353E-01
    0.20610687044537424895E-01
    0.20573850746251148847E-01
    0.18367098685780500200E-01
    0.73792940563095609646E-02
    0.65226429664310692225E-02
    0.40085034446693274673E-02
    0.38132880404878255129E-02
    0.42488278344612728094E-02
    0.92495735760468773823E-02
    0.16375247518026277149E-01
    0.20234383151653705102E-01
    0.17748794449874177870E-01
    0.19586365442692699884E-01
    0.16410675550090507435E-01
    0.18427612549950046772E-01
    0.21046647067404319897E-01
    0.21246283776078376399E-01
    0.20540023537387201713E-01
    0.20444418820435319301E-01
    0.21090907111156145803E-01
    0.12308821686868805928E-01
    0.91156233253471795341E-02
    0.39571233731077876117E-02
    0.88444142555606890255E-02
    0.44719982927213988017E-02
    0.43569379517465877533E-02
    0.16601165946368762194E-01
    0.59221987510533584398E-02
    0.11725626381713070284E-01
    0.16576219005995318501E-01
    0.15639008956666006211E-01
    0.63347687462797439006E-02
    0.12292717727046280698E-01
    0.30036940447080657038E-02
    0.34318210794459513835E-02
    0.27653898623215362670E-02
    0.36497991329345882625E-02
    0.39467236434112219420E-02
    0.27514340443524393405E-02
    0.29493713533391592574E-02
    0.74644984846448554638E-02
    0.14121117119803738849E-01
    0.45087842407507457837E-02
    0.15274888893699904366E-01
    0.12670182131065362008E-01
    0.43003140485201960669E-02
    0.90634502315737799222E-02
    0.18280695045107805963E-01
    0.20066881171533847844E-01
    0.17445484066441484944E-01
    0.19711219259510144586E-01
    0.20435806654705131191E-01
    0.18627595161236673582E-01
    0.17178184089358713993E-01
    0.25735474002788428713E-02
    0.24687166655784275812E-02
    0.22489686161566357567E-02
    0.29428161705068052977E-02
    0.28443152557504698848E-02
    0.22823361021363616948E-02
    0.23220701321057558852E-02
    0.20183025162723959578E-01
    0.20476119855008384496E-01
    0.20931954761084399508E-01
    0.20355023736383738575E-01
    0.21354730489121148684E-01
    0.20276976020487825353E-01
    0.17631403911032419995E-01
    0.19650031480957508290E-01
    0.20626637307430362167E-01
    0.17464590014233540016E-01
    0.19480935030142781939E-01
    0.15091642082595424154E-01
    0.18856292252932799897E-01
    0.17825719467433602528E-01
    0.16639565605074357196E-01
    0.16316444287465980967E-01
    0.33142220299611220395E-02
    0.39396706703894784560E-02
    0.33357815482619431260E-02
    0.37865541076915975281E-02
    0.41217180480962022776E-02
    0.17226898589255818656E-01
    0.20514899746479027531E-01
    0.18754219570926169980E-01
    0.18578003018672243490E-01
    0.20197989468029746429E-01
    0.78001293391908779057E-02
    0.13213289247750519342E-01
    0.15621165504529412396E-01
    0.56723786719979716470E-02
    0.11480349502624321439E-01
    0.20035659777403853898E-01
    0.18055524706982094274E-01
    0.19473948379406587350E-01
    0.17535879633133931443E-01
    0.18993990202409993806E-01
    0.49203294967596952064E-02
    0.14353750905891388134E-01
    0.94377801846343943593E-02
    0.89494873832290707666E-02
    0.13754850696144974020E-01
    0.20843334603199311500E-01
    0.21164931033993267945E-01
    0.20412068174555944577E-01
    0.21319725532966946058E-01
    0.21459896970896692042E-01
    0.32399353221718627492E-02
    0.43103553253062395004E-02
    0.35544846894859159596E-02
    0.35190362255850047950E-02
    0.40347951682977115789E-02
    0.29544061202754238679E-02
    0.28017609354372748770E-02
    0.31124610667081801726E-02
    0.27472614661813127106E-02
    0.33154040772037643089E-02
    0.18388900155287206395E-01
    0.20703061748070891723E-01
    0.19718803107617362963E-01
    0.20940137810649191163E-01
    0.20759451270984177751E-01
    0.14387564061912026109E-01
    0.13887818285090664308E-01
    0.16642377866656864194E-01
    0.15741473324174422299E-01
    0.17250179034237159148E-01
    0.19486089542639032507E-01
    0.17107014498725640894E-01
    0.17349921447162498789E-01
    0.19164673859927369021E-01
    0.17420185172198027895E-01
    0.14690809249623796445E-01
    0.14137997980863733355E-01
    0.16396203310318289981E-01
    0.49060351078044949283E-02
    0.13701051815877737447E-01
    0.27081215278386325772E-02
    0.29226275012564743860E-02
    0.35195773102407058169E-02
    0.35121421031245403724E-02
    0.34833241727139172689E-02
    0.38994185354027173680E-02
    0.41100027626683873980E-02
    0.57238949948290674188E-02
    0.10072991046710633514E-01
    0.14755868761845397641E-01
    0.14224846826114908444E-01
    0.16086772166951673890E-01
    0.21274044646329690056E-01
    0.21177251922820203300E-01
    0.21688479545220774869E-01
    0.20827383986860820153E-01
    0.14885119130039543844E-01
    0.48136997846671154139E-02
    0.67838705542787964761E-02
    0.20254755176770548875E-01
    0.20164752318197684544E-01
    0.34574973886211672787E-02
    0.28724181088078067949E-02
    0.26392736329465395044E-02
    0.10194748003964398259E-01
    0.40810903916830018959E-02
    0.38959040401052580371E-02
    0.16046065433792978949E-01
    0.17178888811520392349E-01
    0.12494601814630440506E-01
    0.19008495290622387519E-01
    0.16636699917227028289E-01
    0.16519071815457961327E-01
    0.43628035371964159900E-02
    0.43721551509590629234E-02
    0.31329808669384008948E-02
    0.20605335528845497572E-01
    0.21627397772647348473E-01
    0.20097525249086596599E-01
    0.30533648795700385828E-02
    0.29424898721867945306E-02
    0.23931450032598014510E-02
    0.28308323647668583514E-02
    0.25287223031988251623E-02
    0.22721169552177718741E-02
    0.20431594919706697056E-01
    0.21719526174639652849E-01
    0.20585715206216929907E-01
    0.20358966814368776449E-01
    0.13357391875032173165E-01
    0.18781548919874338499E-01
    0.15686900930044218871E-01
    0.15687824595224726665E-01
    0.42329266804160166349E-02
    0.14965080934377743976E-01
    0.12247184762363767102E-01
    0.61446632973045801213E-02
    0.21056064564770798908E-01
    0.20554948223744849006E-01
    0.19078234419446671311E-01
    0.19418885144585472380E-01
    0.18774162310390606068E-01
    0.37044463385785078059E-02
    0.43040919184668385150E-02
    0.24856656349205568518E-02
    0.26338648872238248737E-02
    0.17149548658123903166E-01
    0.15140194875659443441E-01
    0.20885778582420714763E-02
    0.21196778988721342099E-02
    0.15739657624370670397E-01
    0.46074710417047777880E-02
    0.45238901430421094366E-02
    0.20305424523128307035E-01
    0.33500269317903535148E-02
    0.15733400110093123669E-01
    0.20995238714160223414E-01
    0.35135577830115406403E-02
    0.20412245181680440526E-01
    0.17114980052152985179E-01
    0.18703896032694983242E-01
    0.15967327863626066403E-01
    0.18254259928657201595E-01
    0.34080416483238378661E-02
    0.37937438814762726447E-02
    0.12524659406088996250E-01
    0.16656239458416849386E-01
    0.20462670976577189419E-01
    0.55492182332647806142E-02
    0.20775647100218182228E-01
    0.17511133481111593180E-01
    0.15971267100177079235E-01
    0.43395909881502048311E-02
    0.29932156425318909992E-02
    0.26652633678742746262E-02
    0.60876216733542660997E-02
    0.48162976261443019715E-02
    0.22044573675295930752E-02
    0.21580796188980428708E-02
    0.22619532755927380073E-02
    0.21526517545829531967E-02
    0.38611762650402167880E-02
    0.95773012495407316980E-02
    0.11451288641702635912E-01
    0.12794107283428652819E-01
    0.13178753891433284476E-01
    0.12609049942313578507E-01
    0.11228724898167714505E-01
    0.85723273865932966831E-02
    0.10487487954723338779E-01
    0.10022146890583415180E-01
    0.60078164319155649697E-02
    0.34474460631245267168E-02
    0.29037427401328720460E-02
    0.24984130836923105698E-02
    0.21990542494388703662E-02
    0.22494232751743012746E-02
    0.22780107919489105475E-02
    0.22753267285991378779E-02
    0.22161451793190345416E-02
    0.21611942579457719092E-02
    0.21819765838438994095E-02
    0.28320933574348867469E-02
    0.29064426131819812854E-02
    0.28513663183509650907E-02
    0.27126714686561068102E-02
    0.24824359691076316667E-02
    0.22642098169018435791E-02
    0.21567643670379558346E-02
