# vtk DataFile Version 3.0
LAPLACIEN  2D
ASCII
DATASET UNSTRUCTURED_GRID
 POINTS         391  float
  0.50371505999999999       0.50367786999999997        0.0000000000000000     
  0.29013556000000001       0.29014535000000002        0.0000000000000000     
  0.70165584999999997       0.71206597999999999        0.0000000000000000     
  0.70304188999999995       0.30176619999999998        0.0000000000000000     
  0.30920671999999999       0.71149227999999998        0.0000000000000000     
  0.79044983999999996       0.49884783999999999        0.0000000000000000     
  0.49102621000000002       0.20968644000000000        0.0000000000000000     
  0.49912957000000002       0.77208717000000004        0.0000000000000000     
  0.21724072999999999       0.48989389000000000        0.0000000000000000     
  0.83255933999999998       0.83046598000000005        0.0000000000000000     
  0.16646774000000000       0.17015694000000001        0.0000000000000000     
  0.83054514999999995       0.16736480000000001        0.0000000000000000     
  0.16953130999999999       0.83265739000000005        0.0000000000000000     
  0.42166445000000002       0.36345201999999999        0.0000000000000000     
  0.64462200999999997       0.56347807999999999        0.0000000000000000     
  0.35324633999999999       0.56311191000000005        0.0000000000000000     
  0.65456411000000003       0.84856860999999995        0.0000000000000000     
  0.35141477999999998       0.15563974000000000        0.0000000000000000     
  0.15290967000000000       0.35206625000000003        0.0000000000000000     
  0.82942241000000005       0.34936866000000000        0.0000000000000000     
  0.84390527000000004       0.64441694999999999        0.0000000000000000     
  0.63699174999999997       0.14284276000000001        0.0000000000000000     
  0.15620682999999999       0.64648446999999998        0.0000000000000000     
  0.36426062999999997       0.85756310999999996        0.0000000000000000     
  0.63489340999999999       0.40519052000000000        0.0000000000000000     
  0.52518872999999999       0.65957078000000002        0.0000000000000000     
  0.32158959999999998       0.42298103999999997        0.0000000000000000     
  0.58861710000000000       0.31711036999999997        0.0000000000000000     
  0.42078418000000001       0.69497151999999995        0.0000000000000000     
  0.48608786999999998       0.89334152000000000        0.0000000000000000     
   9.7084320000000002E-002  0.50000000000000000        0.0000000000000000     
  0.90291568000000000       0.50000000000000000        0.0000000000000000     
  0.51392453000000005       0.10668648999999999        0.0000000000000000     
  0.59792566999999996       0.73122754000000001        0.0000000000000000     
  0.74510058999999995       0.41124730999999998        0.0000000000000000     
  0.73212551999999997       0.90191560000000004        0.0000000000000000     
   9.7784830000000003E-002  0.26957329000000002        0.0000000000000000     
  0.26711221000000002        9.8671499999999995E-002   0.0000000000000000     
  0.90191560000000004       0.26787448000000003        0.0000000000000000     
  0.90118569000000004       0.73039821000000005        0.0000000000000000     
  0.73122947000000005        9.8017859999999998E-002   0.0000000000000000     
   9.8084400000000002E-002  0.73212551999999997        0.0000000000000000     
  0.26957329000000002       0.90221516999999996        0.0000000000000000     
  0.39283522999999998       0.25360379000000000        0.0000000000000000     
  0.74480864000000002       0.60495284999999999        0.0000000000000000     
  0.25505132000000003       0.60593640999999998        0.0000000000000000     
  0.52159297999999998       0.40671636000000000        0.0000000000000000     
  0.40768852000000000       0.47699891000000000        0.0000000000000000     
   9.1467049999999994E-002   9.1876959999999994E-002   0.0000000000000000     
  0.90842484999999995       0.90819225000000003        0.0000000000000000     
  0.90820104999999995        9.1566729999999999E-002   0.0000000000000000     
   9.1807449999999999E-002  0.90843574000000005        0.0000000000000000     
  0.27098960000000000       0.20527094000000001        0.0000000000000000     
  0.73457293999999995       0.79835387000000002        0.0000000000000000     
  0.79817773000000003       0.25713470999999999        0.0000000000000000     
  0.20747797000000001       0.72863946000000002        0.0000000000000000     
  0.20175195000000001       0.27583914999999998        0.0000000000000000     
  0.79603889000000005       0.72159035000000005        0.0000000000000000     
  0.71761666000000002       0.19748431999999999        0.0000000000000000     
  0.28462607000000001       0.80251899999999998        0.0000000000000000     
  0.69134598999999997       0.49261972999999998        0.0000000000000000     
  0.44720578999999999       0.58582935999999997        0.0000000000000000     
  0.24242269999999999       0.37228174000000003        0.0000000000000000     
  0.38265623999999998       0.93072131999999996        0.0000000000000000     
  0.60971754000000000       0.91988369000000003        0.0000000000000000     
   7.9163609999999995E-002  0.60979116000000000        0.0000000000000000     
  0.92010649000000000       0.61081183999999999        0.0000000000000000     
  0.61954008999999999        7.1530830000000004E-002   0.0000000000000000     
  0.91882012999999996       0.38917363999999999        0.0000000000000000     
  0.39086346000000000        8.0652249999999995E-002   0.0000000000000000     
   7.9183480000000001E-002  0.38966213000000000        0.0000000000000000     
  0.59114111999999996       0.49294315000000000        0.0000000000000000     
  0.63337980999999999       0.64485914000000000        0.0000000000000000     
  0.50012352000000004       0.29676539000000002        0.0000000000000000     
  0.82552601000000003       0.92753492000000004        0.0000000000000000     
  0.92774772999999999       0.82498556999999995        0.0000000000000000     
   7.1970870000000006E-002  0.17510291000000000        0.0000000000000000     
  0.17422821999999999        7.2635640000000001E-002   0.0000000000000000     
  0.82510813000000005        7.2134840000000006E-002   0.0000000000000000     
  0.92754665000000003       0.17446275999999999        0.0000000000000000     
  0.17501022999999999       0.92789951999999998        0.0000000000000000     
   7.2464680000000004E-002  0.82554053000000005        0.0000000000000000     
  0.30731587999999999       0.50885354999999999        0.0000000000000000     
  0.59033407999999998       0.22171178999999999        0.0000000000000000     
  0.40109191999999999       0.78725542000000004        0.0000000000000000     
  0.35420917000000002       0.63754104000000000        0.0000000000000000     
  0.15983976999999999       0.56665573000000002        0.0000000000000000     
  0.84108459999999996       0.56757886999999996        0.0000000000000000     
  0.83902096000000004       0.43344338999999998        0.0000000000000000     
  0.43230028999999998       0.16004268999999999        0.0000000000000000     
  0.57536027999999995       0.83041363999999995        0.0000000000000000     
  0.15771898000000001       0.42747892999999998        0.0000000000000000     
  0.34021692999999997       0.34221559000000001        0.0000000000000000     
  0.56002271999999997       0.57501117999999996        0.0000000000000000     
  0.65344329000000001       0.78147597999999996        0.0000000000000000     
   0.0000000000000000        0.0000000000000000        0.0000000000000000     
   1.0000000000000000        0.0000000000000000        0.0000000000000000     
   1.0000000000000000        1.0000000000000000        0.0000000000000000     
   0.0000000000000000        1.0000000000000000        0.0000000000000000     
  0.11111111000000000        0.0000000000000000        0.0000000000000000     
  0.22222222000000000        0.0000000000000000        0.0000000000000000     
  0.33333332999999998        0.0000000000000000        0.0000000000000000     
  0.44444444000000000        0.0000000000000000        0.0000000000000000     
  0.55555555999999995        0.0000000000000000        0.0000000000000000     
  0.66666667000000002        0.0000000000000000        0.0000000000000000     
  0.77777777999999997        0.0000000000000000        0.0000000000000000     
  0.88888889000000004        0.0000000000000000        0.0000000000000000     
   1.0000000000000000       0.11111111000000000        0.0000000000000000     
   1.0000000000000000       0.22222222000000000        0.0000000000000000     
   1.0000000000000000       0.33333332999999998        0.0000000000000000     
   1.0000000000000000       0.44444444000000000        0.0000000000000000     
   1.0000000000000000       0.55555555999999995        0.0000000000000000     
   1.0000000000000000       0.66666667000000002        0.0000000000000000     
   1.0000000000000000       0.77777777999999997        0.0000000000000000     
   1.0000000000000000       0.88888889000000004        0.0000000000000000     
  0.88888889000000004        1.0000000000000000        0.0000000000000000     
  0.77777777999999997        1.0000000000000000        0.0000000000000000     
  0.66666667000000002        1.0000000000000000        0.0000000000000000     
  0.55555555999999995        1.0000000000000000        0.0000000000000000     
  0.44444444000000000        1.0000000000000000        0.0000000000000000     
  0.33333332999999998        1.0000000000000000        0.0000000000000000     
  0.22222222000000000        1.0000000000000000        0.0000000000000000     
  0.11111111000000000        1.0000000000000000        0.0000000000000000     
   0.0000000000000000       0.11111111000000000        0.0000000000000000     
   0.0000000000000000       0.22222222000000000        0.0000000000000000     
[...]
 CELL_DATA         354
 SCALARS V float
 LOOKUP_TABLE default
    0.30852052313542772943E-01
    0.40782686070897952724E-01
    0.22326984873614782318E-01
    0.18622955705923829872E-01
    0.33611038946706542352E-01
    0.36268502823020895565E-01
    0.43314780690537638130E-01
    0.39491054345156179073E-01
    0.46980672865125146231E-01
    0.50855599534884950164E-01
    0.58525234183379896968E-01
    0.54338321232917007053E-01
    0.60166644605906219323E-01
    0.59181588126002743211E-01
    0.56936908416704512526E-01
    0.58293316025417846182E-01
    0.54234163093038911807E-01
    0.50199450605070389253E-01
    0.43970976209427622972E-01
    0.46851816816840329005E-01
    0.42662830315159300243E-01
    0.43881232587256652211E-01
    0.47125074711527277505E-01
    0.45331732367000679429E-01
    0.47491256800279782468E-01
    0.46472595463431784490E-01
    0.43924941265140994562E-01
    0.45354843573482184205E-01
    0.41820912455720074541E-01
    0.38794738767742496799E-01
    0.33564630825112497237E-01
    0.36223488488342496516E-01
    0.30995600400529170482E-01
    0.28283001290627718394E-01
    0.24229867446419840749E-01
    0.26042408065455831256E-01
    0.23245887179193475830E-01
    0.23874306437478690079E-01
    0.25943716567589800159E-01
    0.24751760177115771089E-01
    0.26558033980381364619E-01
    0.26677287019054415212E-01
    0.27201211964156105094E-01
    0.26853672341659778899E-01
    0.26794460295215198620E-01
    0.25510196694753649316E-01
    0.24146507341797369267E-01
    0.24719130349800597091E-01
    0.23135974707438895781E-01
    0.21675287357147993150E-01
    0.19678198570047277655E-01
    0.20544771332920232915E-01
    0.31869371765727114165E-01
    0.32402690714794131488E-01
    0.34300767311885353716E-01
    0.33191616038762264407E-01
    0.34493434218087037912E-01
    0.33807854423678354583E-01
    0.32618033046170225031E-01
    0.33220968563539059193E-01
    0.31449630289933881711E-01
    0.29592608026529063081E-01
    0.26407054524054347777E-01
    0.28030056038968232529E-01
    0.24717383241015071504E-01
    0.22792277601126106901E-01
    0.19991316111900962749E-01
    0.21232627768144579639E-01
    0.70507080493703841451E-01
    0.63446613732989473600E-01
    0.59158823574571320347E-01
    0.66782792229198736922E-01
    0.61187482601334580723E-01
    0.61160429188228580821E-01
    0.54716465155736145054E-01
    0.51450719117313380158E-01
    0.53274720699667925394E-01
    0.58824425263693483346E-01
    0.42557690743169562797E-01
    0.45878500080360783142E-01
    0.38695226386088694970E-01
    0.40884824766421155873E-01
    0.46120801848809941936E-01
    0.39849105785656917245E-01
    0.68635378225766069393E-01
    0.79858433082138413628E-01
    0.87691441808475989461E-01
    0.72592061018419168361E-01
    0.70347363506710586245E-01
    0.75330417098299601308E-01
    0.83583950187333930226E-01
    0.40016705222548909493E-01
    0.39020239753989827136E-01
    0.34945413228932742378E-01
    0.34191778382886360566E-01
    0.36502793655773510539E-01
    0.41061146912658524899E-01
    0.51458752556712117343E-01
    0.61398554052110733414E-01
    0.53533835557999912003E-01
    0.59898969782711697363E-01
    0.51206370420146793410E-01
    0.56119549035587433516E-01
    0.72961748010050425650E-01
    0.73611973634224600604E-01
    0.81470412994821800323E-01
    0.81418946529732930117E-01
    0.71551034184245965175E-01
    0.43184668883988086563E-01
    0.40756948535812964618E-01
    0.34327676335412851683E-01
    0.40472564017770031042E-01
    0.36808052211349667759E-01
    0.36418501007394625535E-01
    0.50220530549925368469E-01
    0.39507055047385379598E-01
    0.42760609102233670953E-01
    0.47432012851924179597E-01
    0.47438730671704530673E-01
    0.40125381602730242347E-01
    0.42724298700043676635E-01
    0.30021085970978078628E-01
    0.32703252423732370735E-01
    0.27827222440728681396E-01
    0.33173513730367441832E-01
    0.34789518206180300441E-01
    0.28186901453775305842E-01
    0.29628807482163042192E-01
    0.40237603547306946550E-01
    0.45012277228088357073E-01
    0.38115344211622978476E-01
    0.47237005820624532182E-01
    0.44600313089129949018E-01
    0.38203628747210491290E-01
    0.40813464983105118833E-01
    0.54908319688238435563E-01
    0.59128273619651991466E-01
    0.51015250754844941594E-01
    0.60727405534407842558E-01
    0.63679898338843826666E-01
    0.53925360109930764452E-01
    0.51783369022434209972E-01
    0.26890757206647908362E-01
    0.26080092299478881829E-01
    0.23386175051653589757E-01
    0.29111905034838327089E-01
    0.28662913894320067587E-01
    0.24100814899073577657E-01
    0.24552195754020532392E-01
    0.63365465505024171078E-01
    0.70487236188519458713E-01
    0.74957146287540021845E-01
    0.66445726127550758244E-01
    0.77827349717761895587E-01
    0.65753578436780799055E-01
    0.54583939612194626312E-01
    0.60826352019038812391E-01
    0.62782907118972358651E-01
    0.54010865179755930543E-01
    0.58087023387912439798E-01
    0.45737871362555852783E-01
    0.54869204467386870072E-01
    0.51825745740161771602E-01
    0.50213482691083895226E-01
    0.47166744627771373111E-01
    0.31159799743373864378E-01
    0.34004506283088195562E-01
    0.31112433162190894498E-01
    0.33750338639097501869E-01
    0.35343115070577510450E-01
    0.53143730396445827691E-01
    0.62604131600486084830E-01
    0.55731475345771920582E-01
    0.57161282371242287670E-01
    0.62463136614786862744E-01
    0.40417312749347483747E-01
    0.44519656690054462689E-01
    0.45876360844010116713E-01
    0.39330581736565159434E-01
    0.42038502231499783046E-01
    0.64332942325768374681E-01
    0.56459987380269936741E-01
    0.62686867054314754366E-01
    0.54824246217387483104E-01
    0.58123477557657961257E-01
    0.38269201609346985282E-01
    0.45493860620139811579E-01
    0.40627874666468659359E-01
    0.40861577426318386463E-01
    0.44724786921689588248E-01
    0.70280261656654643976E-01
    0.66347580551000248650E-01
    0.71860094622426651245E-01
    0.66946509590017216906E-01
    0.77234785672741571028E-01
    0.30596038163571301349E-01
    0.36733349236866649767E-01
    0.32987947265033255861E-01
    0.32129602569813509039E-01
    0.35310851050515248972E-01
    0.30351948062167080633E-01
    0.28172356224830365223E-01
    0.30697082640226778377E-01
    0.28400373615609472711E-01
    0.32494165238981333188E-01
    0.86764651035260612066E-01
    0.73172804153546752715E-01
    0.79862377951651727925E-01
    0.70994250873467584784E-01
    0.73443514722170227804E-01
    0.45561219523813381582E-01
    0.45081328122794868396E-01
    0.50751064110048912936E-01
    0.49253810672597347908E-01
    0.52819206919209736595E-01
    0.59133083613642410670E-01
    0.53199824058505450208E-01
    0.53236561761083586730E-01
    0.59202374162153612036E-01
    0.87330809102759351936E-01
    0.91138633699996210447E-01
    0.91524027061930246507E-01
    0.47684684857633517774E-01
    0.38873426016253341542E-01
    0.43815766526525676272E-01
    0.28177288742712303105E-01
    0.29528671110532485333E-01
    0.33016933562576365746E-01
    0.32553462774257836687E-01
    0.32898596813393111982E-01
    0.35703230182579814844E-01
    0.36270866743679235078E-01
    0.38572141831487424812E-01
    0.43138251776361151435E-01
    0.48319647362258577594E-01
    0.47226474921648269045E-01
    0.51606929853931358954E-01
    0.64757794215261024751E-01
    0.61010006252059441334E-01
    0.76023124999386709755E-01
    0.66770017823824148739E-01
    0.45915546914249857902E-01
    0.38337265429665610961E-01
    0.39740122818545976779E-01
    0.66088880573128713780E-01
    0.60985270209106400008E-01
    0.32038623331494750501E-01
    0.28890768893736044204E-01
    0.27381758012739097069E-01
    0.42420570550189336256E-01
    0.37087111310510907647E-01
    0.36589843247381403923E-01
    0.50029917922831901311E-01
    0.51895718810087948514E-01
    0.43025441121490121121E-01
    0.58375572056868614557E-01
    0.51199256283260399791E-01
    0.50062134048887430016E-01
    0.36455509211022321669E-01
    0.37054456482124770167E-01
    0.30960224502192060236E-01
    0.65585068470929555606E-01
    0.62006672116241209891E-01
    0.55361955233923537678E-01
    0.29751553625042503892E-01
    0.29156819788914045688E-01
    0.25101693595209764731E-01
    0.28420620340997397590E-01
    0.26283141995319617840E-01
    0.23993301034889981393E-01
    0.59633961341299293601E-01
    0.76500223531724753645E-01
    0.67654477879024482734E-01
    0.64753807118828582423E-01
    0.43961026272579153962E-01
    0.57046322049912168151E-01
    0.50043907736023185429E-01
    0.48804746492084272180E-01
    0.36315015575485262711E-01
    0.45857937806091812749E-01
    0.42863769807122288624E-01
    0.38957096203938453016E-01
    0.69540971337008913866E-01
    0.73367922538869131954E-01
    0.83044344293671912283E-01
    0.57268228288204485465E-01
    0.55259393510930697457E-01
    0.34982114331015598530E-01
    0.37076647512205185286E-01
    0.25636274713322269869E-01
    0.26799818757132061464E-01
    0.48735060943203255268E-01
    0.47076327726138504637E-01
    0.21797815752270958967E-01
    0.22165581925293043747E-01
    0.49552878941837935622E-01
    0.36925944258680232224E-01
    0.36694298786261736467E-01
    0.67701950813871758506E-01
    0.31647444651802393578E-01
    0.48663852764786380556E-01
    0.78427085778378161085E-01
    0.33403909321559288603E-01
    0.66596404256114294373E-01
    0.48393726879702503307E-01
    0.55724872907566821989E-01
    0.45336144933196542706E-01
    0.55868244289001264824E-01
    0.31729806498145517180E-01
    0.33945849447670539689E-01
    0.43713438802560941610E-01
    0.52900979980041833162E-01
    0.61585187208158559402E-01
    0.38771600994325319811E-01
    0.62637261639291882953E-01
    0.53675920798180766502E-01
    0.87606123357939519325E-01
    0.36423238252105215318E-01
    0.30330761940605174831E-01
    0.28812949516951683743E-01
    0.39503212397622049223E-01
    0.38381202335668551662E-01
    0.21814802226853835521E-01
    0.20952969113830276909E-01
    0.17672892992566493348E-01
    0.17947792840555313459E-01
    0.36351146994598314277E-01
    0.43085917094447756526E-01
    0.49505651617824407429E-01
    0.54379607359983629655E-01
    0.54954801171391044756E-01
    0.51966767158863856613E-01
    0.45991235788815150454E-01
    0.41750725378805579602E-01
    0.43611068671509170547E-01
    0.42743112623338734568E-01
    0.39904848405323135874E-01
    0.35495711652276988601E-01
    0.30723603305319521772E-01
    0.25985746976942412922E-01
    0.22786417464137110472E-01
    0.24282910148429415892E-01
    0.24884050332976182657E-01
    0.24799472983028373468E-01
    0.23626964091701410653E-01
    0.22046565082765166854E-01
    0.19878967830350730006E-01
    0.30684808804338888077E-01
    0.31724855400297222174E-01
    0.31226409827537174313E-01
    0.29694444140519006547E-01
    0.27087470244606268177E-01
    0.24099498103396777698E-01
    0.20898705797831283737E-01
