# vtk DataFile Version 3.0
LAPLACIEN  2D
ASCII
DATASET UNSTRUCTURED_GRID
 POINTS         391  float
  0.50371505999999999       0.50367786999999997        0.0000000000000000     
  0.29013556000000001       0.29014535000000002        0.0000000000000000     
  0.70165584999999997       0.71206597999999999        0.0000000000000000     
  0.70304188999999995       0.30176619999999998        0.0000000000000000     
  0.30920671999999999       0.71149227999999998        0.0000000000000000     
  0.79044983999999996       0.49884783999999999        0.0000000000000000     
  0.49102621000000002       0.20968644000000000        0.0000000000000000     
  0.49912957000000002       0.77208717000000004        0.0000000000000000     
  0.21724072999999999       0.48989389000000000        0.0000000000000000     
  0.83255933999999998       0.83046598000000005        0.0000000000000000     
  0.16646774000000000       0.17015694000000001        0.0000000000000000     
  0.83054514999999995       0.16736480000000001        0.0000000000000000     
  0.16953130999999999       0.83265739000000005        0.0000000000000000     
  0.42166445000000002       0.36345201999999999        0.0000000000000000     
  0.64462200999999997       0.56347807999999999        0.0000000000000000     
  0.35324633999999999       0.56311191000000005        0.0000000000000000     
  0.65456411000000003       0.84856860999999995        0.0000000000000000     
  0.35141477999999998       0.15563974000000000        0.0000000000000000     
  0.15290967000000000       0.35206625000000003        0.0000000000000000     
  0.82942241000000005       0.34936866000000000        0.0000000000000000     
  0.84390527000000004       0.64441694999999999        0.0000000000000000     
  0.63699174999999997       0.14284276000000001        0.0000000000000000     
  0.15620682999999999       0.64648446999999998        0.0000000000000000     
  0.36426062999999997       0.85756310999999996        0.0000000000000000     
  0.63489340999999999       0.40519052000000000        0.0000000000000000     
  0.52518872999999999       0.65957078000000002        0.0000000000000000     
  0.32158959999999998       0.42298103999999997        0.0000000000000000     
  0.58861710000000000       0.31711036999999997        0.0000000000000000     
  0.42078418000000001       0.69497151999999995        0.0000000000000000     
  0.48608786999999998       0.89334152000000000        0.0000000000000000     
   9.7084320000000002E-002  0.50000000000000000        0.0000000000000000     
  0.90291568000000000       0.50000000000000000        0.0000000000000000     
  0.51392453000000005       0.10668648999999999        0.0000000000000000     
  0.59792566999999996       0.73122754000000001        0.0000000000000000     
  0.74510058999999995       0.41124730999999998        0.0000000000000000     
  0.73212551999999997       0.90191560000000004        0.0000000000000000     
   9.7784830000000003E-002  0.26957329000000002        0.0000000000000000     
  0.26711221000000002        9.8671499999999995E-002   0.0000000000000000     
  0.90191560000000004       0.26787448000000003        0.0000000000000000     
  0.90118569000000004       0.73039821000000005        0.0000000000000000     
  0.73122947000000005        9.8017859999999998E-002   0.0000000000000000     
   9.8084400000000002E-002  0.73212551999999997        0.0000000000000000     
  0.26957329000000002       0.90221516999999996        0.0000000000000000     
  0.39283522999999998       0.25360379000000000        0.0000000000000000     
  0.74480864000000002       0.60495284999999999        0.0000000000000000     
  0.25505132000000003       0.60593640999999998        0.0000000000000000     
  0.52159297999999998       0.40671636000000000        0.0000000000000000     
  0.40768852000000000       0.47699891000000000        0.0000000000000000     
   9.1467049999999994E-002   9.1876959999999994E-002   0.0000000000000000     
  0.90842484999999995       0.90819225000000003        0.0000000000000000     
  0.90820104999999995        9.1566729999999999E-002   0.0000000000000000     
   9.1807449999999999E-002  0.90843574000000005        0.0000000000000000     
  0.27098960000000000       0.20527094000000001        0.0000000000000000     
  0.73457293999999995       0.79835387000000002        0.0000000000000000     
  0.79817773000000003       0.25713470999999999        0.0000000000000000     
  0.20747797000000001       0.72863946000000002        0.0000000000000000     
  0.20175195000000001       0.27583914999999998        0.0000000000000000     
  0.79603889000000005       0.72159035000000005        0.0000000000000000     
  0.71761666000000002       0.19748431999999999        0.0000000000000000     
  0.28462607000000001       0.80251899999999998        0.0000000000000000     
  0.69134598999999997       0.49261972999999998        0.0000000000000000     
  0.44720578999999999       0.58582935999999997        0.0000000000000000     
  0.24242269999999999       0.37228174000000003        0.0000000000000000     
  0.38265623999999998       0.93072131999999996        0.0000000000000000     
  0.60971754000000000       0.91988369000000003        0.0000000000000000     
   7.9163609999999995E-002  0.60979116000000000        0.0000000000000000     
  0.92010649000000000       0.61081183999999999        0.0000000000000000     
  0.61954008999999999        7.1530830000000004E-002   0.0000000000000000     
  0.91882012999999996       0.38917363999999999        0.0000000000000000     
  0.39086346000000000        8.0652249999999995E-002   0.0000000000000000     
   7.9183480000000001E-002  0.38966213000000000        0.0000000000000000     
  0.59114111999999996       0.49294315000000000        0.0000000000000000     
  0.63337980999999999       0.64485914000000000        0.0000000000000000     
  0.50012352000000004       0.29676539000000002        0.0000000000000000     
  0.82552601000000003       0.92753492000000004        0.0000000000000000     
  0.92774772999999999       0.82498556999999995        0.0000000000000000     
   7.1970870000000006E-002  0.17510291000000000        0.0000000000000000     
  0.17422821999999999        7.2635640000000001E-002   0.0000000000000000     
  0.82510813000000005        7.2134840000000006E-002   0.0000000000000000     
  0.92754665000000003       0.17446275999999999        0.0000000000000000     
  0.17501022999999999       0.92789951999999998        0.0000000000000000     
   7.2464680000000004E-002  0.82554053000000005        0.0000000000000000     
  0.30731587999999999       0.50885354999999999        0.0000000000000000     
  0.59033407999999998       0.22171178999999999        0.0000000000000000     
  0.40109191999999999       0.78725542000000004        0.0000000000000000     
  0.35420917000000002       0.63754104000000000        0.0000000000000000     
  0.15983976999999999       0.56665573000000002        0.0000000000000000     
  0.84108459999999996       0.56757886999999996        0.0000000000000000     
  0.83902096000000004       0.43344338999999998        0.0000000000000000     
  0.43230028999999998       0.16004268999999999        0.0000000000000000     
  0.57536027999999995       0.83041363999999995        0.0000000000000000     
  0.15771898000000001       0.42747892999999998        0.0000000000000000     
  0.34021692999999997       0.34221559000000001        0.0000000000000000     
  0.56002271999999997       0.57501117999999996        0.0000000000000000     
  0.65344329000000001       0.78147597999999996        0.0000000000000000     
   0.0000000000000000        0.0000000000000000        0.0000000000000000     
   1.0000000000000000        0.0000000000000000        0.0000000000000000     
   1.0000000000000000        1.0000000000000000        0.0000000000000000     
   0.0000000000000000        1.0000000000000000        0.0000000000000000     
  0.11111111000000000        0.0000000000000000        0.0000000000000000     
  0.22222222000000000        0.0000000000000000        0.0000000000000000     
  0.33333332999999998        0.0000000000000000        0.0000000000000000     
  0.44444444000000000        0.0000000000000000        0.0000000000000000     
  0.55555555999999995        0.0000000000000000        0.0000000000000000     
  0.66666667000000002        0.0000000000000000        0.0000000000000000     
  0.77777777999999997        0.0000000000000000        0.0000000000000000     
  0.88888889000000004        0.0000000000000000        0.0000000000000000     
   1.0000000000000000       0.11111111000000000        0.0000000000000000     
   1.0000000000000000       0.22222222000000000        0.0000000000000000     
   1.0000000000000000       0.33333332999999998        0.0000000000000000     
   1.0000000000000000       0.44444444000000000        0.0000000000000000     
   1.0000000000000000       0.55555555999999995        0.0000000000000000     
   1.0000000000000000       0.66666667000000002        0.0000000000000000     
   1.0000000000000000       0.77777777999999997        0.0000000000000000     
   1.0000000000000000       0.88888889000000004        0.0000000000000000     
  0.88888889000000004        1.0000000000000000        0.0000000000000000     
  0.77777777999999997        1.0000000000000000        0.0000000000000000     
  0.66666667000000002        1.0000000000000000        0.0000000000000000     
  0.55555555999999995        1.0000000000000000        0.0000000000000000     
  0.44444444000000000        1.0000000000000000        0.0000000000000000     
  0.33333332999999998        1.0000000000000000        0.0000000000000000     
  0.22222222000000000        1.0000000000000000        0.0000000000000000     
  0.11111111000000000        1.0000000000000000        0.0000000000000000     
   0.0000000000000000       0.11111111000000000        0.0000000000000000     
   0.0000000000000000       0.22222222000000000        0.0000000000000000     
[...]
 CELL_DATA         354
 SCALARS V float
 LOOKUP_TABLE default
    0.29857163689115066157E-02
    0.71195178888473053397E-02
    0.22245175779821817208E-02
    0.22061694117918992028E-02
    0.34510650417625002642E-02
    0.39178992690990259093E-02
    0.13806057368488344056E-01
    0.84068273384030750561E-02
    0.15981775319581489891E-01
    0.18000461279546940002E-01
    0.21219676735002176993E-01
    0.19953706330277022618E-01
    0.21423928900663816166E-01
    0.21676326101176451866E-01
    0.21318070914990022713E-01
    0.21740638663017439192E-01
    0.20667377532662740969E-01
    0.18927878439310617809E-01
    0.12576727220955669778E-01
    0.17310976368171866746E-01
    0.99104230684149870190E-02
    0.12942768120656245739E-01
    0.15958756102738749089E-01
    0.14232105555119872048E-01
    0.16264739292731984766E-01
    0.15860146774828855903E-01
    0.11179720949326591925E-01
    0.14804021694458095737E-01
    0.74999778635716409653E-02
    0.56426230187928590187E-02
    0.32909846115329690654E-02
    0.37323746020737473029E-02
    0.30302762468560062725E-02
    0.26838033388861255550E-02
    0.23237184928039497818E-02
    0.24910608169064992791E-02
    0.22707982702852387222E-02
    0.22818206617704153184E-02
    0.24398079406451004397E-02
    0.23278896300852089211E-02
    0.24505723232439821820E-02
    0.24736074132817192396E-02
    0.25190716989280624583E-02
    0.24864366563086110450E-02
    0.25111899904869980187E-02
    0.23542264684224844563E-02
    0.22544091831515396945E-02
    0.22863300916329295891E-02
    0.22210394377225250659E-02
    0.21672666371939956417E-02
    0.21377932841524617882E-02
    0.21081137167398796874E-02
    0.30964423196315118275E-02
    0.31282540306939786261E-02
    0.33769628292379494199E-02
    0.31876167767843923383E-02
    0.33531144715234478121E-02
    0.32679265298724636049E-02
    0.31493138674336803792E-02
    0.32265261944619742611E-02
    0.30351780673264104268E-02
    0.27853152510882287808E-02
    0.24309810345768188659E-02
    0.26330114554614430719E-02
    0.23349599570701446566E-02
    0.21936467040432677464E-02
    0.20405995215946508628E-02
    0.20952047576353813318E-02
    0.20775070557626520995E-01
    0.19979505473769830493E-01
    0.19560178696445863766E-01
    0.20285284561075138388E-01
    0.20041062475450614755E-01
    0.20214245017762970391E-01
    0.18362963501230331054E-01
    0.16494555193925820868E-01
    0.17059373430457980964E-01
    0.19084156159095873317E-01
    0.11893973145094794211E-01
    0.14545360737623878877E-01
    0.50469077655694513651E-02
    0.97070881170084437339E-02
    0.14807213019597722375E-01
    0.68688313788319872027E-02
    0.20332801361374698568E-01
    0.19471854734291121208E-01
    0.16622457313695455233E-01
    0.20340271419275232634E-01
    0.20449330007102903273E-01
    0.20604017360075083110E-01
    0.18501008899766278187E-01
    0.73936880924051736133E-02
    0.65991901538814141254E-02
    0.39647922985833403131E-02
    0.37709243364618307698E-02
    0.42032225653686333677E-02
    0.93880920506885026655E-02
    0.16207796136941760023E-01
    0.20012903711296301662E-01
    0.17558545690550955015E-01
    0.19374252171608298545E-01
    0.16244885169297354488E-01
    0.18225519351540861446E-01
    0.21002875987507291927E-01
    0.21175538675614266615E-01
    0.20547372274582004215E-01
    0.20480660121602836665E-01
    0.20994182528062489690E-01
    0.12408083821041122549E-01
    0.91566017617479220081E-02
    0.39126294359928138339E-02
    0.88928103048220314558E-02
    0.44529438726108542396E-02
    0.43233563059141451312E-02
    0.16504460053533190345E-01
    0.59574377998443412557E-02
    0.11795769944266665946E-01
    0.16484352854434395491E-01
    0.15575710499744283705E-01
    0.63953194076735112722E-02
    0.12302730467550124921E-01
    0.29690976549598619219E-02
    0.33926636495651427486E-02
    0.27340449366285339908E-02
    0.36086825253450714734E-02
    0.39028068645043691165E-02
    0.27200846169186014903E-02
    0.29156807011510308195E-02
    0.74870394427265125892E-02
    0.14129719052739178262E-01
    0.44929278557889335000E-02
    0.15191424016229585631E-01
    0.12680918249679441409E-01
    0.42535738008101326921E-02
    0.91109107763297832866E-02
    0.18086568298885767614E-01
    0.19879936107257377420E-01
    0.17312992155041045245E-01
    0.19502072098519056265E-01
    0.20231536995453151817E-01
    0.18471554235224327267E-01
    0.17023900725597961719E-01
    0.25440401159487952866E-02
    0.24404571153535262532E-02
    0.22237704245061176711E-02
    0.29092336259246612783E-02
    0.28115127584487395289E-02
    0.22565841246469779159E-02
    0.22957871353300554097E-02
    0.19976291933451240102E-01
    0.20364252888506011174E-01
    0.20868128490089017657E-01
    0.20170259011748369049E-01
    0.21316714859632112516E-01
    0.20109149688766689290E-01
    0.17445860993448011889E-01
    0.19439473147529029440E-01
    0.20401817346151235322E-01
    0.17278551576188135031E-01
    0.19262684436166879060E-01
    0.15003127514332269266E-01
    0.18664239388156096677E-01
    0.17651735090524433430E-01
    0.16486006711564343136E-01
    0.16210928246914724227E-01
    0.32761119268012511493E-02
    0.38953686526459357399E-02
    0.32972948675970325041E-02
    0.37440016710882633583E-02
    0.40759128367073241966E-02
    0.17085105353282083879E-01
    0.20304410546712420294E-01
    0.18551415173877407183E-01
    0.18432056606900740214E-01
    0.20008529413553233917E-01
    0.78701276811069895839E-02
    0.13293565559902987064E-01
    0.15522762490123518872E-01
    0.56983280261569757910E-02
    0.11453484680483006636E-01
    0.19837551535048791873E-01
    0.17865336175952852005E-01
    0.19284578507534875375E-01
    0.17349717635988075315E-01
    0.18783248003716560698E-01
    0.48849775790199799486E-02
    0.14375034132241833879E-01
    0.94448651309862359515E-02
    0.89385264796647753704E-02
    0.13766878157203055882E-01
    0.20786329635343252925E-01
    0.21023216904348829281E-01
    0.20325897802024449346E-01
    0.21192768178397044382E-01
    0.21410933665429711381E-01
    0.32028435243499739533E-02
    0.42651960185380232912E-02
    0.35143868393935611544E-02
    0.34785780156093375724E-02
    0.39899144104177785425E-02
    0.29201024626207684569E-02
    0.27691796286886628461E-02
    0.30763135294657618229E-02
    0.27152041386839702655E-02
    0.32770954385077624878E-02
    0.18520082507847302616E-01
    0.20599276449082062901E-01
    0.19792865302449967613E-01
    0.20772667251023523016E-01
    0.20678837293785175266E-01
    0.14376848059352905634E-01
    0.13919250895070699181E-01
    0.16500726314341709194E-01
    0.15631151953444607366E-01
    0.17073649791107703422E-01
    0.19285573886388587828E-01
    0.16964960727554028591E-01
    0.17203921003905237735E-01
    0.18964401224920587885E-01
    0.17537572709187140840E-01
    0.14933125792556626449E-01
    0.14364779031221772826E-01
    0.16285204755597089410E-01
    0.48860844016708300172E-02
    0.13676692236219227181E-01
    0.26766975371354867139E-02
    0.28886670070202022723E-02
    0.34786618235431473849E-02
    0.34720075525735169357E-02
    0.34428311590688123051E-02
    0.38543841548297395026E-02
    0.40645879746144669697E-02
    0.57579043185232211405E-02
    0.10147778488624909290E-01
    0.14677353490402268027E-01
    0.14135683577656293908E-01
    0.15925392556994849569E-01
    0.21144728785281445560E-01
    0.20982857178016737359E-01
    0.21671496551432960220E-01
    0.20684295796849355709E-01
    0.14828622991629228020E-01
    0.47769946417033169045E-02
    0.68445125967356839486E-02
    0.20065897977555695320E-01
    0.19940231109587990693E-01
    0.34183772769511918017E-02
    0.28389972642461755101E-02
    0.26089524077599398483E-02
    0.10349046435350804651E-01
    0.40383073791502525213E-02
    0.38517662573768658707E-02
    0.15925481616863731982E-01
    0.17086607896327092593E-01
    0.12615876011579095148E-01
    0.18800032236014809633E-01
    0.16539229930682818048E-01
    0.16434704689663164751E-01
    0.43265427729534382956E-02
    0.43283195550022314155E-02
    0.30972196847715129445E-02
    0.20445753804606663084E-01
    0.21451231688876533366E-01
    0.19928766735528111176E-01
    0.30184975330204400455E-02
    0.29083821200992184854E-02
    0.23661002511840278917E-02
    0.27982387174606375424E-02
    0.24995288866725279275E-02
    0.22465408959421824184E-02
    0.20202551325889432643E-01
    0.21638794399280479597E-01
    0.20442108165678277154E-01
    0.20188389229957082183E-01
    0.13420697742709489925E-01
    0.18576053838283666797E-01
    0.15581805168542264134E-01
    0.15601290690918315912E-01
    0.41885900922777078922E-02
    0.14891178442944661559E-01
    0.12318009868563351006E-01
    0.62058175427418963213E-02
    0.20894787686336763199E-01
    0.20486961859766887606E-01
    0.19139630737337154365E-01
    0.19218887636740782099E-01
    0.18583090623386568085E-01
    0.36609512829480195771E-02
    0.42894819563160475548E-02
    0.24576637981192335849E-02
    0.26040240292377319492E-02
    0.17058580395656861711E-01
    0.15111299422822188632E-01
    0.20655992198743613336E-02
    0.20962449200905945712E-02
    0.15613733029798456536E-01
    0.45926092935502215581E-02
    0.44750209518171204723E-02
    0.20125304861779498566E-01
    0.33116381702908014202E-02
    0.15648086927754517594E-01
    0.21065154857315832038E-01
    0.34731729727483771387E-02
    0.20220763478122523449E-01
    0.16975079352752359130E-01
    0.18501252410750949895E-01
    0.15848632014336193341E-01
    0.18057419688204373598E-01
    0.33691145279208388648E-02
    0.37502726282483645967E-02
    0.12524863796396681903E-01
    0.16483908741687473831E-01
    0.20276527508455106930E-01
    0.55715678087506752963E-02
    0.20546985449665350343E-01
    0.17326763866004516595E-01
    0.16198583412289503658E-01
    0.42920226676811876199E-02
    0.29580234812699142746E-02
    0.26337384633793791897E-02
    0.61211122273374836411E-02
    0.49221782412793933098E-02
    0.21817064606578411359E-02
    0.21363548413925307658E-02
    0.22468384964533945868E-02
    0.21361653097479236900E-02
    0.38186464328522724473E-02
    0.95983525007797901307E-02
    0.11350907688320123479E-01
    0.12666995133524636130E-01
    0.13049221820554145201E-01
    0.12494599402984876702E-01
    0.11157626277865220765E-01
    0.86144136920507114602E-02
    0.10423130898155535257E-01
    0.99678439538070928716E-02
    0.60721844967814991856E-02
    0.34063037299080218927E-02
    0.28692685818855301165E-02
    0.24698572824717094330E-02
    0.21747509461545518755E-02
    0.22235912748189068031E-02
    0.22515241952066841237E-02
    0.22489732098250388853E-02
    0.21909072188645369213E-02
    0.21379764938345849692E-02
    0.21622942285758413490E-02
    0.27982173653186802331E-02
    0.28715686664566079066E-02
    0.28171598854756117400E-02
    0.26803056278810154234E-02
    0.24531692864523811821E-02
    0.22386221304076447600E-02
    0.21350635886595442647E-02
