# vtk DataFile Version 3.0
LAPLACIEN  2D
ASCII
DATASET UNSTRUCTURED_GRID
 POINTS         391  float
  0.50371505999999999       0.50367786999999997        0.0000000000000000     
  0.29013556000000001       0.29014535000000002        0.0000000000000000     
  0.70165584999999997       0.71206597999999999        0.0000000000000000     
  0.70304188999999995       0.30176619999999998        0.0000000000000000     
  0.30920671999999999       0.71149227999999998        0.0000000000000000     
  0.79044983999999996       0.49884783999999999        0.0000000000000000     
  0.49102621000000002       0.20968644000000000        0.0000000000000000     
  0.49912957000000002       0.77208717000000004        0.0000000000000000     
  0.21724072999999999       0.48989389000000000        0.0000000000000000     
  0.83255933999999998       0.83046598000000005        0.0000000000000000     
  0.16646774000000000       0.17015694000000001        0.0000000000000000     
  0.83054514999999995       0.16736480000000001        0.0000000000000000     
  0.16953130999999999       0.83265739000000005        0.0000000000000000     
  0.42166445000000002       0.36345201999999999        0.0000000000000000     
  0.64462200999999997       0.56347807999999999        0.0000000000000000     
  0.35324633999999999       0.56311191000000005        0.0000000000000000     
  0.65456411000000003       0.84856860999999995        0.0000000000000000     
  0.35141477999999998       0.15563974000000000        0.0000000000000000     
  0.15290967000000000       0.35206625000000003        0.0000000000000000     
  0.82942241000000005       0.34936866000000000        0.0000000000000000     
  0.84390527000000004       0.64441694999999999        0.0000000000000000     
  0.63699174999999997       0.14284276000000001        0.0000000000000000     
  0.15620682999999999       0.64648446999999998        0.0000000000000000     
  0.36426062999999997       0.85756310999999996        0.0000000000000000     
  0.63489340999999999       0.40519052000000000        0.0000000000000000     
  0.52518872999999999       0.65957078000000002        0.0000000000000000     
  0.32158959999999998       0.42298103999999997        0.0000000000000000     
  0.58861710000000000       0.31711036999999997        0.0000000000000000     
  0.42078418000000001       0.69497151999999995        0.0000000000000000     
  0.48608786999999998       0.89334152000000000        0.0000000000000000     
   9.7084320000000002E-002  0.50000000000000000        0.0000000000000000     
  0.90291568000000000       0.50000000000000000        0.0000000000000000     
  0.51392453000000005       0.10668648999999999        0.0000000000000000     
  0.59792566999999996       0.73122754000000001        0.0000000000000000     
  0.74510058999999995       0.41124730999999998        0.0000000000000000     
  0.73212551999999997       0.90191560000000004        0.0000000000000000     
   9.7784830000000003E-002  0.26957329000000002        0.0000000000000000     
  0.26711221000000002        9.8671499999999995E-002   0.0000000000000000     
  0.90191560000000004       0.26787448000000003        0.0000000000000000     
  0.90118569000000004       0.73039821000000005        0.0000000000000000     
  0.73122947000000005        9.8017859999999998E-002   0.0000000000000000     
   9.8084400000000002E-002  0.73212551999999997        0.0000000000000000     
  0.26957329000000002       0.90221516999999996        0.0000000000000000     
  0.39283522999999998       0.25360379000000000        0.0000000000000000     
  0.74480864000000002       0.60495284999999999        0.0000000000000000     
  0.25505132000000003       0.60593640999999998        0.0000000000000000     
  0.52159297999999998       0.40671636000000000        0.0000000000000000     
  0.40768852000000000       0.47699891000000000        0.0000000000000000     
   9.1467049999999994E-002   9.1876959999999994E-002   0.0000000000000000     
  0.90842484999999995       0.90819225000000003        0.0000000000000000     
  0.90820104999999995        9.1566729999999999E-002   0.0000000000000000     
   9.1807449999999999E-002  0.90843574000000005        0.0000000000000000     
  0.27098960000000000       0.20527094000000001        0.0000000000000000     
  0.73457293999999995       0.79835387000000002        0.0000000000000000     
  0.79817773000000003       0.25713470999999999        0.0000000000000000     
  0.20747797000000001       0.72863946000000002        0.0000000000000000     
  0.20175195000000001       0.27583914999999998        0.0000000000000000     
  0.79603889000000005       0.72159035000000005        0.0000000000000000     
  0.71761666000000002       0.19748431999999999        0.0000000000000000     
  0.28462607000000001       0.80251899999999998        0.0000000000000000     
  0.69134598999999997       0.49261972999999998        0.0000000000000000     
  0.44720578999999999       0.58582935999999997        0.0000000000000000     
  0.24242269999999999       0.37228174000000003        0.0000000000000000     
  0.38265623999999998       0.93072131999999996        0.0000000000000000     
  0.60971754000000000       0.91988369000000003        0.0000000000000000     
   7.9163609999999995E-002  0.60979116000000000        0.0000000000000000     
  0.92010649000000000       0.61081183999999999        0.0000000000000000     
  0.61954008999999999        7.1530830000000004E-002   0.0000000000000000     
  0.91882012999999996       0.38917363999999999        0.0000000000000000     
  0.39086346000000000        8.0652249999999995E-002   0.0000000000000000     
   7.9183480000000001E-002  0.38966213000000000        0.0000000000000000     
  0.59114111999999996       0.49294315000000000        0.0000000000000000     
  0.63337980999999999       0.64485914000000000        0.0000000000000000     
  0.50012352000000004       0.29676539000000002        0.0000000000000000     
  0.82552601000000003       0.92753492000000004        0.0000000000000000     
  0.92774772999999999       0.82498556999999995        0.0000000000000000     
   7.1970870000000006E-002  0.17510291000000000        0.0000000000000000     
  0.17422821999999999        7.2635640000000001E-002   0.0000000000000000     
  0.82510813000000005        7.2134840000000006E-002   0.0000000000000000     
  0.92754665000000003       0.17446275999999999        0.0000000000000000     
  0.17501022999999999       0.92789951999999998        0.0000000000000000     
   7.2464680000000004E-002  0.82554053000000005        0.0000000000000000     
  0.30731587999999999       0.50885354999999999        0.0000000000000000     
  0.59033407999999998       0.22171178999999999        0.0000000000000000     
  0.40109191999999999       0.78725542000000004        0.0000000000000000     
  0.35420917000000002       0.63754104000000000        0.0000000000000000     
  0.15983976999999999       0.56665573000000002        0.0000000000000000     
  0.84108459999999996       0.56757886999999996        0.0000000000000000     
  0.83902096000000004       0.43344338999999998        0.0000000000000000     
  0.43230028999999998       0.16004268999999999        0.0000000000000000     
  0.57536027999999995       0.83041363999999995        0.0000000000000000     
  0.15771898000000001       0.42747892999999998        0.0000000000000000     
  0.34021692999999997       0.34221559000000001        0.0000000000000000     
  0.56002271999999997       0.57501117999999996        0.0000000000000000     
  0.65344329000000001       0.78147597999999996        0.0000000000000000     
   0.0000000000000000        0.0000000000000000        0.0000000000000000     
   1.0000000000000000        0.0000000000000000        0.0000000000000000     
   1.0000000000000000        1.0000000000000000        0.0000000000000000     
   0.0000000000000000        1.0000000000000000        0.0000000000000000     
  0.11111111000000000        0.0000000000000000        0.0000000000000000     
  0.22222222000000000        0.0000000000000000        0.0000000000000000     
  0.33333332999999998        0.0000000000000000        0.0000000000000000     
  0.44444444000000000        0.0000000000000000        0.0000000000000000     
  0.55555555999999995        0.0000000000000000        0.0000000000000000     
  0.66666667000000002        0.0000000000000000        0.0000000000000000     
  0.77777777999999997        0.0000000000000000        0.0000000000000000     
  0.88888889000000004        0.0000000000000000        0.0000000000000000     
   1.0000000000000000       0.11111111000000000        0.0000000000000000     
   1.0000000000000000       0.22222222000000000        0.0000000000000000     
   1.0000000000000000       0.33333332999999998        0.0000000000000000     
   1.0000000000000000       0.44444444000000000        0.0000000000000000     
   1.0000000000000000       0.55555555999999995        0.0000000000000000     
   1.0000000000000000       0.66666667000000002        0.0000000000000000     
   1.0000000000000000       0.77777777999999997        0.0000000000000000     
   1.0000000000000000       0.88888889000000004        0.0000000000000000     
  0.88888889000000004        1.0000000000000000        0.0000000000000000     
  0.77777777999999997        1.0000000000000000        0.0000000000000000     
  0.66666667000000002        1.0000000000000000        0.0000000000000000     
  0.55555555999999995        1.0000000000000000        0.0000000000000000     
  0.44444444000000000        1.0000000000000000        0.0000000000000000     
  0.33333332999999998        1.0000000000000000        0.0000000000000000     
  0.22222222000000000        1.0000000000000000        0.0000000000000000     
  0.11111111000000000        1.0000000000000000        0.0000000000000000     
   0.0000000000000000       0.11111111000000000        0.0000000000000000     
   0.0000000000000000       0.22222222000000000        0.0000000000000000     
[...]
 CELL_DATA         354
 SCALARS V float
 LOOKUP_TABLE default
    0.30852151187176674735E-01
    0.40782818189576894308E-01
    0.22327058806008423519E-01
    0.18623019708521131726E-01
    0.33611054414252959643E-01
    0.36268548488367038929E-01
    0.43314912382475791175E-01
    0.39491134315310844061E-01
    0.46980809059513087278E-01
    0.50855719219693160116E-01
    0.58525429859219421647E-01
    0.54338496647266809614E-01
    0.60166786253260856610E-01
    0.59181752001339515967E-01
    0.56937089295161696922E-01
    0.58293499390791966852E-01
    0.54234322371315792088E-01
    0.50199559844773339323E-01
    0.43971015524916459705E-01
    0.46851890057472145301E-01
    0.42662917305547019831E-01
    0.43881324709923147376E-01
    0.47125209591940095399E-01
    0.45331850551514091263E-01
    0.47491443786895147505E-01
    0.46472765599275642212E-01
    0.43925066378171548354E-01
    0.45354972457473191616E-01
    0.41821048675335245615E-01
    0.38794852702287691004E-01
    0.33564726844450512577E-01
    0.36223577600648329544E-01
    0.30995699487386542403E-01
    0.28283066687240690507E-01
    0.24229887305173246348E-01
    0.26042446110872433107E-01
    0.23245944532946080652E-01
    0.23874361585973939703E-01
    0.25943803001765866623E-01
    0.24751832411996490396E-01
    0.26558148524445920891E-01
    0.26677390986034499321E-01
    0.27201329813418960446E-01
    0.26853774500033004979E-01
    0.26794559038500816162E-01
    0.25510283806648246380E-01
    0.24146601466473766040E-01
    0.24719224656867867101E-01
    0.23136055594878187497E-01
    0.21675349791493325746E-01
    0.19678238753916679760E-01
    0.20544815389055615107E-01
    0.31869455859640738460E-01
    0.32402766730869156375E-01
    0.34300874869149323987E-01
    0.33191712922449267964E-01
    0.34493577808742598156E-01
    0.33807984020638406908E-01
    0.32618138796580514738E-01
    0.33221072298884171681E-01
    0.31449741715426679511E-01
    0.29592703283528642988E-01
    0.26407150798276397136E-01
    0.28030143145864227366E-01
    0.24717467464437210822E-01
    0.22792336099470688476E-01
    0.19991343423858214112E-01
    0.21232665955941885938E-01
    0.70507102054777587297E-01
    0.63446584584221227265E-01
    0.59158702995464121366E-01
    0.66782793140804569409E-01
    0.61187383476364980150E-01
    0.61160483004561554121E-01
    0.54716475934529509861E-01
    0.51450659991017881623E-01
    0.53274641607381219288E-01
    0.58824379467140780475E-01
    0.42557739699044160042E-01
    0.45878554374744723310E-01
    0.38695221940087023982E-01
    0.40884848891466603338E-01
    0.46120793826318715047E-01
    0.39849186602222197440E-01
    0.68635338931405623364E-01
    0.79858199984033387264E-01
    0.87690676194219899231E-01
    0.72592023628998553209E-01
    0.70347306331523584699E-01
    0.75330429919177988030E-01
    0.83583550153688249140E-01
    0.40016632976644067599E-01
    0.39020206708037179222E-01
    0.34945405283546282504E-01
    0.34191783122829423613E-01
    0.36502787548781223670E-01
    0.41061060674286553596E-01
    0.51458709353956064159E-01
    0.61398556527541045535E-01
    0.53533835893743886292E-01
    0.59898902724639074835E-01
    0.51206447118633022231E-01
    0.56119495885579601113E-01
    0.72961623006972037286E-01
    0.73611831929289162080E-01
    0.81470309855349309913E-01
    0.81418870417937411199E-01
    0.71551030267894083492E-01
    0.43184653091175556616E-01
    0.40756968029155210553E-01
    0.34327609103851325356E-01
    0.40472577675241191986E-01
    0.36808021272896243592E-01
    0.36418512294684339536E-01
    0.50220444556986036655E-01
    0.39507034716480433911E-01
    0.42760604076781727478E-01
    0.47432033983077159789E-01
    0.47438662808371570567E-01
    0.40125464554548059826E-01
    0.42724340458335327564E-01
    0.30021102867075419307E-01
    0.32703277516950131354E-01
    0.27827241295032008328E-01
    0.33173472711720539130E-01
    0.34789489385238292485E-01
    0.28186970330312251937E-01
    0.29628859760620938207E-01
    0.40237638873650651006E-01
    0.45012299262877607242E-01
    0.38115368462933653382E-01
    0.47236938018511517856E-01
    0.44600268355424056710E-01
    0.38203704151439109304E-01
    0.40813532785156918237E-01
    0.54908311552803998334E-01
    0.59128283487846142186E-01
    0.51015265582081102680E-01
    0.60727298301959983795E-01
    0.63679804386652980042E-01
    0.53925444005639207312E-01
    0.51783473874165250606E-01
    0.26890786931740955079E-01
    0.26080126809933296128E-01
    0.23386194276602052800E-01
    0.29111878619492367881E-01
    0.28662896470862845449E-01
    0.24100869980414583310E-01
    0.24552251979185070463E-01
    0.63365470633179377113E-01
    0.70487213990545985465E-01
    0.74957019490772769377E-01
    0.66445672548202938668E-01
    0.77827213137764930662E-01
    0.65753611375264447991E-01
    0.54583814635652365410E-01
    0.60826315082161699910E-01
    0.62782935666366709859E-01
    0.54010774261218301440E-01
    0.58086970353735833950E-01
    0.45737761876713245446E-01
    0.54869293742634862865E-01
    0.51825781757366684577E-01
    0.50213453337456880055E-01
    0.47166716409979159152E-01
    0.31159730383307930601E-01
    0.34004473809777717441E-01
    0.31112348463582913116E-01
    0.33750354270494428710E-01
    0.35343117215814207066E-01
    0.53143590255012820855E-01
    0.62604107441568759840E-01
    0.55731434840548696452E-01
    0.57161148460598554255E-01
    0.62463118766327610509E-01
    0.40417232333617519879E-01
    0.44519666269897908983E-01
    0.45876410437960250810E-01
    0.39330493712815932372E-01
    0.42038504749775711111E-01
    0.64332965331090050110E-01
    0.56459894130107955712E-01
    0.62686835783385269627E-01
    0.54824150565135121305E-01
    0.58123486887799995226E-01
    0.38269114270495147023E-01
    0.45493890361070335460E-01
    0.40627875717870909344E-01
    0.40861500255633828593E-01
    0.44724802330292731667E-01
    0.70280255825683674020E-01
    0.66347440632113244274E-01
    0.71860069057856940100E-01
    0.66946521834432018427E-01
    0.77234633715918252217E-01
    0.30595972824296491233E-01
    0.36733391393073286380E-01
    0.32987967891339703419E-01
    0.32129539700141984682E-01
    0.35310866420588837844E-01
    0.30352022570832238452E-01
    0.28172316384766221686E-01
    0.30697115342262114995E-01
    0.28400402130120398769E-01
    0.32494210742018844740E-01
    0.86764160102750037540E-01
    0.73172801875603044053E-01
    0.79862191158284689951E-01
    0.70994188434967062107E-01
    0.73443463433686365094E-01
    0.45561198210238768036E-01
    0.45081346942881919682E-01
    0.50751068336744552256E-01
    0.49253793743364242264E-01
    0.52819186235682012709E-01
    0.59133112447957353330E-01
    0.53199725881170077668E-01
    0.53236548383297777054E-01
    0.59202325456124971215E-01
    0.87330259000941601322E-01
    0.91137769681808686317E-01
    0.91522994633739529480E-01
    0.47684697588338258167E-01
    0.38873429841666251594E-01
    0.43815753397637935418E-01
    0.28177363891612142166E-01
    0.29528655101374253616E-01
    0.33016888116605400127E-01
    0.32553415020571088712E-01
    0.32898578914545673069E-01
    0.35703192786552435944E-01
    0.36270865095928521427E-01
    0.38572052274722525012E-01
    0.43138225548943170962E-01
    0.48319590046755449275E-01
    0.47226465518188015524E-01
    0.51606794260948822550E-01
    0.64757908633744573623E-01
    0.61009937164205857441E-01
    0.76022845150864604147E-01
    0.66769904253379655512E-01
    0.45915540595891861375E-01
    0.38337266779268561190E-01
    0.39740175311548844861E-01
    0.66088854433191568383E-01
    0.60985338764561657088E-01
    0.32038588073836180015E-01
    0.28890722936446781854E-01
    0.27381812620546563952E-01
    0.42420533755306043255E-01
    0.37087075628046528575E-01
    0.36589898900814460392E-01
    0.50029851015925878854E-01
    0.51895601426665508016E-01
    0.43025524362945960499E-01
    0.58375443268321974832E-01
    0.51199235704500155320E-01
    0.50062214584714312404E-01
    0.36455467089660339997E-01
    0.37054386487762026869E-01
    0.30960293887703667359E-01
    0.65584956874765287793E-01
    0.62006566565893345144E-01
    0.55362052171408562828E-01
    0.29751525389749042955E-01
    0.29156774287830190123E-01
    0.25101752023089271559E-01
    0.28420606415574603543E-01
    0.26283119359111876273E-01
    0.23993354955239108023E-01
    0.59633991981841390218E-01
    0.76499979579939925145E-01
    0.67654471595751150548E-01
    0.64753866095501419475E-01
    0.43961070319368647508E-01
    0.57046208781283497258E-01
    0.50043876618839716608E-01
    0.48804801601847871972E-01
    0.36315050905841327056E-01
    0.45857800620051597518E-01
    0.42863704999728288736E-01
    0.38957162166393527469E-01
    0.69540892269464471553E-01
    0.73367933064779219943E-01
    0.83044008024646259747E-01
    0.57268216688995836339E-01
    0.55259452074800409493E-01
    0.34982122879015566108E-01
    0.37076647074750404554E-01
    0.25636284074087137969E-01
    0.26799819466603203022E-01
    0.48735045150064638941E-01
    0.47076326079685135162E-01
    0.21797821730810500868E-01
    0.22165587348973753157E-01
    0.49552814950561512031E-01
    0.36925927436656159897E-01
    0.36694272125299243204E-01
    0.67701886141945430420E-01
    0.31647424477171587354E-01
    0.48663855123385064971E-01
    0.78427129039386242471E-01
    0.33403962403521884894E-01
    0.66596394853338250486E-01
    0.48393762513283061777E-01
    0.55724819723471062660E-01
    0.45336256143443276478E-01
    0.55868165197449339010E-01
    0.31729755185410428442E-01
    0.33945813799234517139E-01
    0.43713393838271316638E-01
    0.52900889024967236163E-01
    0.61585065983593027805E-01
    0.38771538124150378701E-01
    0.62637226841987372894E-01
    0.53675838008482155972E-01
    0.87605668744008477478E-01
    0.36423241532991458558E-01
    0.30330810386330668560E-01
    0.28813082989234614639E-01
    0.39503306673277172045E-01
    0.38381358405319560001E-01
    0.21814845325218240601E-01
    0.20953061063353744381E-01
    0.17672959167854794538E-01
    0.17947843507102684280E-01
    0.36351227585794246289E-01
    0.43086095215864345098E-01
    0.49505856190332979405E-01
    0.54379847602046962884E-01
    0.54955068011970739650E-01
    0.51967011260552642415E-01
    0.45991376964715002806E-01
    0.41750904716247858040E-01
    0.43611288943177436983E-01
    0.42743323392652521342E-01
    0.39905031549604966234E-01
    0.35495858111731837248E-01
    0.30723729444539927408E-01
    0.25985810180639987155E-01
    0.22786517151317249585E-01
    0.24283039860154599643E-01
    0.24884183436644915360E-01
    0.24799611054069484184E-01
    0.23627085541636921873E-01
    0.22046678032391704011E-01
    0.19879044965686876179E-01
    0.30684949291614457834E-01
    0.31725020529075172171E-01
    0.31226569795199689977E-01
    0.29694590455485864178E-01
    0.27087594597426392640E-01
    0.24099612284361852932E-01
    0.20898771612865012226E-01
