# vtk DataFile Version 3.0
LAPLACIEN  2D
ASCII
DATASET UNSTRUCTURED_GRID
 POINTS         391  float
  0.50371505999999999       0.50367786999999997        0.0000000000000000     
  0.29013556000000001       0.29014535000000002        0.0000000000000000     
  0.70165584999999997       0.71206597999999999        0.0000000000000000     
  0.70304188999999995       0.30176619999999998        0.0000000000000000     
  0.30920671999999999       0.71149227999999998        0.0000000000000000     
  0.79044983999999996       0.49884783999999999        0.0000000000000000     
  0.49102621000000002       0.20968644000000000        0.0000000000000000     
  0.49912957000000002       0.77208717000000004        0.0000000000000000     
  0.21724072999999999       0.48989389000000000        0.0000000000000000     
  0.83255933999999998       0.83046598000000005        0.0000000000000000     
  0.16646774000000000       0.17015694000000001        0.0000000000000000     
  0.83054514999999995       0.16736480000000001        0.0000000000000000     
  0.16953130999999999       0.83265739000000005        0.0000000000000000     
  0.42166445000000002       0.36345201999999999        0.0000000000000000     
  0.64462200999999997       0.56347807999999999        0.0000000000000000     
  0.35324633999999999       0.56311191000000005        0.0000000000000000     
  0.65456411000000003       0.84856860999999995        0.0000000000000000     
  0.35141477999999998       0.15563974000000000        0.0000000000000000     
  0.15290967000000000       0.35206625000000003        0.0000000000000000     
  0.82942241000000005       0.34936866000000000        0.0000000000000000     
  0.84390527000000004       0.64441694999999999        0.0000000000000000     
  0.63699174999999997       0.14284276000000001        0.0000000000000000     
  0.15620682999999999       0.64648446999999998        0.0000000000000000     
  0.36426062999999997       0.85756310999999996        0.0000000000000000     
  0.63489340999999999       0.40519052000000000        0.0000000000000000     
  0.52518872999999999       0.65957078000000002        0.0000000000000000     
  0.32158959999999998       0.42298103999999997        0.0000000000000000     
  0.58861710000000000       0.31711036999999997        0.0000000000000000     
  0.42078418000000001       0.69497151999999995        0.0000000000000000     
  0.48608786999999998       0.89334152000000000        0.0000000000000000     
   9.7084320000000002E-002  0.50000000000000000        0.0000000000000000     
  0.90291568000000000       0.50000000000000000        0.0000000000000000     
  0.51392453000000005       0.10668648999999999        0.0000000000000000     
  0.59792566999999996       0.73122754000000001        0.0000000000000000     
  0.74510058999999995       0.41124730999999998        0.0000000000000000     
  0.73212551999999997       0.90191560000000004        0.0000000000000000     
   9.7784830000000003E-002  0.26957329000000002        0.0000000000000000     
  0.26711221000000002        9.8671499999999995E-002   0.0000000000000000     
  0.90191560000000004       0.26787448000000003        0.0000000000000000     
  0.90118569000000004       0.73039821000000005        0.0000000000000000     
  0.73122947000000005        9.8017859999999998E-002   0.0000000000000000     
   9.8084400000000002E-002  0.73212551999999997        0.0000000000000000     
  0.26957329000000002       0.90221516999999996        0.0000000000000000     
  0.39283522999999998       0.25360379000000000        0.0000000000000000     
  0.74480864000000002       0.60495284999999999        0.0000000000000000     
  0.25505132000000003       0.60593640999999998        0.0000000000000000     
  0.52159297999999998       0.40671636000000000        0.0000000000000000     
  0.40768852000000000       0.47699891000000000        0.0000000000000000     
   9.1467049999999994E-002   9.1876959999999994E-002   0.0000000000000000     
  0.90842484999999995       0.90819225000000003        0.0000000000000000     
  0.90820104999999995        9.1566729999999999E-002   0.0000000000000000     
   9.1807449999999999E-002  0.90843574000000005        0.0000000000000000     
  0.27098960000000000       0.20527094000000001        0.0000000000000000     
  0.73457293999999995       0.79835387000000002        0.0000000000000000     
  0.79817773000000003       0.25713470999999999        0.0000000000000000     
  0.20747797000000001       0.72863946000000002        0.0000000000000000     
  0.20175195000000001       0.27583914999999998        0.0000000000000000     
  0.79603889000000005       0.72159035000000005        0.0000000000000000     
  0.71761666000000002       0.19748431999999999        0.0000000000000000     
  0.28462607000000001       0.80251899999999998        0.0000000000000000     
  0.69134598999999997       0.49261972999999998        0.0000000000000000     
  0.44720578999999999       0.58582935999999997        0.0000000000000000     
  0.24242269999999999       0.37228174000000003        0.0000000000000000     
  0.38265623999999998       0.93072131999999996        0.0000000000000000     
  0.60971754000000000       0.91988369000000003        0.0000000000000000     
   7.9163609999999995E-002  0.60979116000000000        0.0000000000000000     
  0.92010649000000000       0.61081183999999999        0.0000000000000000     
  0.61954008999999999        7.1530830000000004E-002   0.0000000000000000     
  0.91882012999999996       0.38917363999999999        0.0000000000000000     
  0.39086346000000000        8.0652249999999995E-002   0.0000000000000000     
   7.9183480000000001E-002  0.38966213000000000        0.0000000000000000     
  0.59114111999999996       0.49294315000000000        0.0000000000000000     
  0.63337980999999999       0.64485914000000000        0.0000000000000000     
  0.50012352000000004       0.29676539000000002        0.0000000000000000     
  0.82552601000000003       0.92753492000000004        0.0000000000000000     
  0.92774772999999999       0.82498556999999995        0.0000000000000000     
   7.1970870000000006E-002  0.17510291000000000        0.0000000000000000     
  0.17422821999999999        7.2635640000000001E-002   0.0000000000000000     
  0.82510813000000005        7.2134840000000006E-002   0.0000000000000000     
  0.92754665000000003       0.17446275999999999        0.0000000000000000     
  0.17501022999999999       0.92789951999999998        0.0000000000000000     
   7.2464680000000004E-002  0.82554053000000005        0.0000000000000000     
  0.30731587999999999       0.50885354999999999        0.0000000000000000     
  0.59033407999999998       0.22171178999999999        0.0000000000000000     
  0.40109191999999999       0.78725542000000004        0.0000000000000000     
  0.35420917000000002       0.63754104000000000        0.0000000000000000     
  0.15983976999999999       0.56665573000000002        0.0000000000000000     
  0.84108459999999996       0.56757886999999996        0.0000000000000000     
  0.83902096000000004       0.43344338999999998        0.0000000000000000     
  0.43230028999999998       0.16004268999999999        0.0000000000000000     
  0.57536027999999995       0.83041363999999995        0.0000000000000000     
  0.15771898000000001       0.42747892999999998        0.0000000000000000     
  0.34021692999999997       0.34221559000000001        0.0000000000000000     
  0.56002271999999997       0.57501117999999996        0.0000000000000000     
  0.65344329000000001       0.78147597999999996        0.0000000000000000     
   0.0000000000000000        0.0000000000000000        0.0000000000000000     
   1.0000000000000000        0.0000000000000000        0.0000000000000000     
   1.0000000000000000        1.0000000000000000        0.0000000000000000     
   0.0000000000000000        1.0000000000000000        0.0000000000000000     
  0.11111111000000000        0.0000000000000000        0.0000000000000000     
  0.22222222000000000        0.0000000000000000        0.0000000000000000     
  0.33333332999999998        0.0000000000000000        0.0000000000000000     
  0.44444444000000000        0.0000000000000000        0.0000000000000000     
  0.55555555999999995        0.0000000000000000        0.0000000000000000     
  0.66666667000000002        0.0000000000000000        0.0000000000000000     
  0.77777777999999997        0.0000000000000000        0.0000000000000000     
  0.88888889000000004        0.0000000000000000        0.0000000000000000     
   1.0000000000000000       0.11111111000000000        0.0000000000000000     
   1.0000000000000000       0.22222222000000000        0.0000000000000000     
   1.0000000000000000       0.33333332999999998        0.0000000000000000     
   1.0000000000000000       0.44444444000000000        0.0000000000000000     
   1.0000000000000000       0.55555555999999995        0.0000000000000000     
   1.0000000000000000       0.66666667000000002        0.0000000000000000     
   1.0000000000000000       0.77777777999999997        0.0000000000000000     
   1.0000000000000000       0.88888889000000004        0.0000000000000000     
  0.88888889000000004        1.0000000000000000        0.0000000000000000     
  0.77777777999999997        1.0000000000000000        0.0000000000000000     
  0.66666667000000002        1.0000000000000000        0.0000000000000000     
  0.55555555999999995        1.0000000000000000        0.0000000000000000     
  0.44444444000000000        1.0000000000000000        0.0000000000000000     
  0.33333332999999998        1.0000000000000000        0.0000000000000000     
  0.22222222000000000        1.0000000000000000        0.0000000000000000     
  0.11111111000000000        1.0000000000000000        0.0000000000000000     
   0.0000000000000000       0.11111111000000000        0.0000000000000000     
   0.0000000000000000       0.22222222000000000        0.0000000000000000     
[...]
 CELL_DATA         354
 SCALARS V float
 LOOKUP_TABLE default
    0.28986702975592869985E-02
    0.74920288186371176986E-02
    0.21652578073442611817E-02
    0.21593303534753515230E-02
    0.33498184361909419393E-02
    0.38231674373579017760E-02
    0.13885734947848341753E-01
    0.83901907753201106915E-02
    0.15897279913072114715E-01
    0.17638800387399976299E-01
    0.20679700770427425494E-01
    0.19465737786553888311E-01
    0.20912524199419552096E-01
    0.21158436088714371870E-01
    0.20809122674624536131E-01
    0.21205286379364845367E-01
    0.20181804305413671152E-01
    0.18532335168205731069E-01
    0.12553080802258424070E-01
    0.17019482462071109513E-01
    0.10223422181222942273E-01
    0.13031753204999638879E-01
    0.15779209212733978640E-01
    0.14227632208224184895E-01
    0.16049159311285580987E-01
    0.15650035959139510511E-01
    0.11259610432533040392E-01
    0.14610786266948748435E-01
    0.78131683523935142183E-02
    0.57486915382216957279E-02
    0.31952968731304930670E-02
    0.36252787095660938231E-02
    0.29424855403755471525E-02
    0.26059758679437910155E-02
    0.22587952495873456563E-02
    0.24203321009054847880E-02
    0.22084132993946768014E-02
    0.22180312820277410871E-02
    0.23697829213495634482E-02
    0.22615097725738868978E-02
    0.23799491902191365761E-02
    0.24022117910633619675E-02
    0.24462497893468220130E-02
    0.24145378115160761462E-02
    0.24386783723175111359E-02
    0.22862480861824100060E-02
    0.21905784320495093331E-02
    0.22210220374571853705E-02
    0.21597825162242519949E-02
    0.21104784619118046457E-02
    0.20879445645420025533E-02
    0.20553382522849310970E-02
    0.30056341296035697132E-02
    0.30355664286281177668E-02
    0.32779240853800998938E-02
    0.30930962625010569554E-02
    0.32552447214637698220E-02
    0.31720799132619664426E-02
    0.30572322039872880037E-02
    0.31317834642195611916E-02
    0.29467146356195804240E-02
    0.27039789120700493709E-02
    0.23610515128433011076E-02
    0.25567369609889693816E-02
    0.22691742941028988229E-02
    0.21330502508588680168E-02
    0.19887132203807874296E-02
    0.20398028522773639822E-02
    0.20336343454803864489E-01
    0.19492367804427920136E-01
    0.19026086457241641464E-01
    0.19797629188982375503E-01
    0.19483179363761093938E-01
    0.19655920004218965791E-01
    0.17842677989014045503E-01
    0.16083961029717822738E-01
    0.16608602231778336195E-01
    0.18563592221018533623E-01
    0.11922596757748597091E-01
    0.14442336451768074401E-01
    0.50140843019086563104E-02
    0.97181966714859971401E-02
    0.14652505876903886006E-01
    0.69053112865700237016E-02
    0.19862032487791801694E-01
    0.19444700377861480478E-01
    0.16664702463520426889E-01
    0.20024792148569760253E-01
    0.20003010789887917115E-01
    0.20538452744936087219E-01
    0.18614242981003760458E-01
    0.73730933290695162621E-02
    0.67034598331959663678E-02
    0.38550676399711127779E-02
    0.36646681622273333950E-02
    0.40886057369409062323E-02
    0.95925441574026722169E-02
    0.15769274591378772132E-01
    0.19455379742974832774E-01
    0.17073518942592767061E-01
    0.18837241174671982835E-01
    0.15810658590388260852E-01
    0.17713664396161607484E-01
    0.20767815203645921540E-01
    0.20880692015643069481E-01
    0.20528747796455248942E-01
    0.20527322785215414147E-01
    0.20676140177387627994E-01
    0.12446161564654292797E-01
    0.91878450051535685839E-02
    0.38011269093016046561E-02
    0.89053263716873647809E-02
    0.44212412758280594111E-02
    0.42585611082388303422E-02
    0.16191602820499865351E-01
    0.60064667446888464139E-02
    0.11848522233148771343E-01
    0.16170208307086906402E-01
    0.15352395222320364826E-01
    0.64687829900849733861E-02
    0.12229264070953722171E-01
    0.28834105911903586995E-02
    0.32952990947269925406E-02
    0.26561854694983500630E-02
    0.35059132065272881514E-02
    0.37926264811561985479E-02
    0.26423908224957964007E-02
    0.28321021640798872340E-02
    0.74939489659323014342E-02
    0.14036263931895267762E-01
    0.44702741774638333344E-02
    0.14937563371669786150E-01
    0.12627802013773791606E-01
    0.41370194279161005835E-02
    0.91557261279551667432E-02
    0.17592102917931930206E-01
    0.19388165321291787185E-01
    0.16933050667816949147E-01
    0.18970150833208659913E-01
    0.19706921124050855165E-01
    0.18041918140527253567E-01
    0.16608202565641543014E-01
    0.24711284718233971457E-02
    0.23706886116889097291E-02
    0.21614162298571213891E-02
    0.28258474007192219482E-02
    0.27303560601522622667E-02
    0.21929438318959841060E-02
    0.22308468666532243162E-02
    0.19447745356267594208E-01
    0.20013178303915090533E-01
    0.20638019887214812537E-01
    0.19681552858588149957E-01
    0.21131511666706660757E-01
    0.19656016987448253486E-01
    0.16970477337527462014E-01
    0.18904922780531574489E-01
    0.19835728079082459718E-01
    0.16802829518926389735E-01
    0.18714927115962634585E-01
    0.14715479316733025283E-01
    0.18166540661351582991E-01
    0.17190905044717270933E-01
    0.16067814972615251934E-01
    0.15885614148509086263E-01
    0.31814267485868906113E-02
    0.37843671534842230134E-02
    0.32016735974634506073E-02
    0.36375832484873433376E-02
    0.39610353651919200102E-02
    0.16703001909402305503E-01
    0.19766386104027020010E-01
    0.18038519136767530715E-01
    0.18033910023139865242E-01
    0.19513080460842890246E-01
    0.79366689275052106772E-02
    0.13305695691758403360E-01
    0.15208829229001092492E-01
    0.57348252934127218888E-02
    0.11313251501043789654E-01
    0.19327421629862645558E-01
    0.17386125324293101591E-01
    0.18790673400881155453E-01
    0.16878584461291364777E-01
    0.18252940160537311359E-01
    0.48080161150923037688E-02
    0.14298541537944294694E-01
    0.93752111388257057534E-02
    0.88192527294593224541E-02
    0.13663412260990978608E-01
    0.20533603679858916657E-01
    0.20603961550509010403E-01
    0.20049266385420008024E-01
    0.20802085767856349358E-01
    0.21198104564125810900E-01
    0.31105817238384291488E-02
    0.41507213446188790176E-02
    0.34143085080575548071E-02
    0.33779160189948503022E-02
    0.38777642388256364746E-02
    0.28354523783201200475E-02
    0.26887184324506452696E-02
    0.29868966819583172428E-02
    0.26361921301315742287E-02
    0.31822548142803846853E-02
    0.18607018182435777764E-01
    0.20285636642405270591E-01
    0.19799781162806409651E-01
    0.20310831956853986346E-01
    0.20416844723012059909E-01
    0.14233419839433228415E-01
    0.13835697709767592889E-01
    0.16110651662865644457E-01
    0.15309954147555433768E-01
    0.16615309053343511880E-01
    0.18770455032805076490E-01
    0.16570348071470529516E-01
    0.16799929003680828116E-01
    0.18455015788999669379E-01
    0.17583014968918106447E-01
    0.15173308245738592603E-01
    0.14579409860456683107E-01
    0.15946149131094274065E-01
    0.48506168565974833520E-02
    0.13527710809337942233E-01
    0.25991672992626531705E-02
    0.28047579323193455939E-02
    0.33772929516309576833E-02
    0.33721360034396114132E-02
    0.33424624785838769926E-02
    0.37429826227699187005E-02
    0.39631140903927377858E-02
    0.57935359761186466798E-02
    0.10256960232844503089E-01
    0.14421151219979413266E-01
    0.13879077081050449419E-01
    0.15502998329863624735E-01
    0.20748620970738144986E-01
    0.20461758535141934268E-01
    0.21478261431593849429E-01
    0.20270251833489794091E-01
    0.14652006877227650300E-01
    0.47033414738740569536E-02
    0.68789946634407756615E-02
    0.19568209256637107002E-01
    0.19377619840610961488E-01
    0.33207641481241990250E-02
    0.27564402401177075935E-02
    0.25340150442220129093E-02
    0.10546346442003518701E-01
    0.39551763678039352293E-02
    0.37430358060873605147E-02
    0.15594924523706150954E-01
    0.16792576428616340367E-01
    0.12658445023624995129E-01
    0.18276572695646420286E-01
    0.16241366857308526389E-01
    0.16161421673846265712E-01
    0.42424495396032610786E-02
    0.42247181665191063660E-02
    0.30083829305908135927E-02
    0.20002844502342825850E-01
    0.20961938113458221389E-01
    0.19459261504733735976E-01
    0.29318611724240923808E-02
    0.28239983514616998940E-02
    0.22991739425971529504E-02
    0.27175581240111382902E-02
    0.24275121645581706348E-02
    0.21833215699884728732E-02
    0.19629171297100844740E-01
    0.21315192020993842248E-01
    0.20036615199255765341E-01
    0.19728907892925931500E-01
    0.13372238903634234980E-01
    0.18056018259330224029E-01
    0.15280991797057590781E-01
    0.15342328355764508693E-01
    0.40763161804705716137E-02
    0.14649102156148209597E-01
    0.12365299027561300199E-01
    0.62695401966737698135E-02
    0.20438561074442158222E-01
    0.20252506463914382584E-01
    0.19130397855401746338E-01
    0.18706044059609929636E-01
    0.18088089552538828830E-01
    0.35535518254867374047E-02
    0.42706020307039307959E-02
    0.23882083880309877208E-02
    0.25299724204145270998E-02
    0.16746680192371007911E-01
    0.14975673812605991286E-01
    0.20087278733960465399E-02
    0.20382452182763407394E-02
    0.15263682328090239643E-01
    0.45657965148426715371E-02
    0.43527714285629629659E-02
    0.19649632850216484231E-01
    0.32161879408991217617E-02
    0.15364852706989128722E-01
    0.21096092275170660879E-01
    0.33729555062025264739E-02
    0.19718864609308193320E-01
    0.16574644804393516562E-01
    0.17986634980249681381E-01
    0.15485619431848127517E-01
    0.17559092965871082870E-01
    0.32721909469558066452E-02
    0.36419933132596517787E-02
    0.12408910371924087440E-01
    0.16038917783355255420E-01
    0.19780344908481517496E-01
    0.55770716331042307842E-02
    0.19972750556453360005E-01
    0.16852210145843017630E-01
    0.16558310152602815496E-01
    0.41724610166664101440E-02
    0.28713162978622804727E-02
    0.25564695984226842515E-02
    0.61585240225364963965E-02
    0.51325822190239145729E-02
    0.21244540495658557726E-02
    0.20813864589946558248E-02
    0.22044300957138277669E-02
    0.20918040109814866126E-02
    0.37249273484035007667E-02
    0.95923081542915560049E-02
    0.11075263283061709610E-01
    0.12337521076070105674E-01
    0.12710518749887243090E-01
    0.12185520696424969808E-01
    0.10925768001422260511E-01
    0.85884877109212356266E-02
    0.10220246674021563060E-01
    0.97719942285733243231E-02
    0.61572891551892354120E-02
    0.33057480353453983293E-02
    0.27847313714232267354E-02
    0.23993134856850066756E-02
    0.21145017128248754824E-02
    0.21600884561196716585E-02
    0.21865836269677782315E-02
    0.21843002894834833219E-02
    0.21287650005272448252E-02
    0.20801039133018497593E-02
    0.21111904294894259966E-02
    0.27153548060151835343E-02
    0.27863309823251227772E-02
    0.27335565277396031529E-02
    0.26011450824776601379E-02
    0.23814847294842743201E-02
    0.21754651222622525299E-02
    0.20801476357851966976E-02
