# vtk DataFile Version 3.0
LAPLACIEN  2D
ASCII
DATASET UNSTRUCTURED_GRID
 POINTS         391  float
  0.50371505999999999       0.50367786999999997        0.0000000000000000     
  0.29013556000000001       0.29014535000000002        0.0000000000000000     
  0.70165584999999997       0.71206597999999999        0.0000000000000000     
  0.70304188999999995       0.30176619999999998        0.0000000000000000     
  0.30920671999999999       0.71149227999999998        0.0000000000000000     
  0.79044983999999996       0.49884783999999999        0.0000000000000000     
  0.49102621000000002       0.20968644000000000        0.0000000000000000     
  0.49912957000000002       0.77208717000000004        0.0000000000000000     
  0.21724072999999999       0.48989389000000000        0.0000000000000000     
  0.83255933999999998       0.83046598000000005        0.0000000000000000     
  0.16646774000000000       0.17015694000000001        0.0000000000000000     
  0.83054514999999995       0.16736480000000001        0.0000000000000000     
  0.16953130999999999       0.83265739000000005        0.0000000000000000     
  0.42166445000000002       0.36345201999999999        0.0000000000000000     
  0.64462200999999997       0.56347807999999999        0.0000000000000000     
  0.35324633999999999       0.56311191000000005        0.0000000000000000     
  0.65456411000000003       0.84856860999999995        0.0000000000000000     
  0.35141477999999998       0.15563974000000000        0.0000000000000000     
  0.15290967000000000       0.35206625000000003        0.0000000000000000     
  0.82942241000000005       0.34936866000000000        0.0000000000000000     
  0.84390527000000004       0.64441694999999999        0.0000000000000000     
  0.63699174999999997       0.14284276000000001        0.0000000000000000     
  0.15620682999999999       0.64648446999999998        0.0000000000000000     
  0.36426062999999997       0.85756310999999996        0.0000000000000000     
  0.63489340999999999       0.40519052000000000        0.0000000000000000     
  0.52518872999999999       0.65957078000000002        0.0000000000000000     
  0.32158959999999998       0.42298103999999997        0.0000000000000000     
  0.58861710000000000       0.31711036999999997        0.0000000000000000     
  0.42078418000000001       0.69497151999999995        0.0000000000000000     
  0.48608786999999998       0.89334152000000000        0.0000000000000000     
   9.7084320000000002E-002  0.50000000000000000        0.0000000000000000     
  0.90291568000000000       0.50000000000000000        0.0000000000000000     
  0.51392453000000005       0.10668648999999999        0.0000000000000000     
  0.59792566999999996       0.73122754000000001        0.0000000000000000     
  0.74510058999999995       0.41124730999999998        0.0000000000000000     
  0.73212551999999997       0.90191560000000004        0.0000000000000000     
   9.7784830000000003E-002  0.26957329000000002        0.0000000000000000     
  0.26711221000000002        9.8671499999999995E-002   0.0000000000000000     
  0.90191560000000004       0.26787448000000003        0.0000000000000000     
  0.90118569000000004       0.73039821000000005        0.0000000000000000     
  0.73122947000000005        9.8017859999999998E-002   0.0000000000000000     
   9.8084400000000002E-002  0.73212551999999997        0.0000000000000000     
  0.26957329000000002       0.90221516999999996        0.0000000000000000     
  0.39283522999999998       0.25360379000000000        0.0000000000000000     
  0.74480864000000002       0.60495284999999999        0.0000000000000000     
  0.25505132000000003       0.60593640999999998        0.0000000000000000     
  0.52159297999999998       0.40671636000000000        0.0000000000000000     
  0.40768852000000000       0.47699891000000000        0.0000000000000000     
   9.1467049999999994E-002   9.1876959999999994E-002   0.0000000000000000     
  0.90842484999999995       0.90819225000000003        0.0000000000000000     
  0.90820104999999995        9.1566729999999999E-002   0.0000000000000000     
   9.1807449999999999E-002  0.90843574000000005        0.0000000000000000     
  0.27098960000000000       0.20527094000000001        0.0000000000000000     
  0.73457293999999995       0.79835387000000002        0.0000000000000000     
  0.79817773000000003       0.25713470999999999        0.0000000000000000     
  0.20747797000000001       0.72863946000000002        0.0000000000000000     
  0.20175195000000001       0.27583914999999998        0.0000000000000000     
  0.79603889000000005       0.72159035000000005        0.0000000000000000     
  0.71761666000000002       0.19748431999999999        0.0000000000000000     
  0.28462607000000001       0.80251899999999998        0.0000000000000000     
  0.69134598999999997       0.49261972999999998        0.0000000000000000     
  0.44720578999999999       0.58582935999999997        0.0000000000000000     
  0.24242269999999999       0.37228174000000003        0.0000000000000000     
  0.38265623999999998       0.93072131999999996        0.0000000000000000     
  0.60971754000000000       0.91988369000000003        0.0000000000000000     
   7.9163609999999995E-002  0.60979116000000000        0.0000000000000000     
  0.92010649000000000       0.61081183999999999        0.0000000000000000     
  0.61954008999999999        7.1530830000000004E-002   0.0000000000000000     
  0.91882012999999996       0.38917363999999999        0.0000000000000000     
  0.39086346000000000        8.0652249999999995E-002   0.0000000000000000     
   7.9183480000000001E-002  0.38966213000000000        0.0000000000000000     
  0.59114111999999996       0.49294315000000000        0.0000000000000000     
  0.63337980999999999       0.64485914000000000        0.0000000000000000     
  0.50012352000000004       0.29676539000000002        0.0000000000000000     
  0.82552601000000003       0.92753492000000004        0.0000000000000000     
  0.92774772999999999       0.82498556999999995        0.0000000000000000     
   7.1970870000000006E-002  0.17510291000000000        0.0000000000000000     
  0.17422821999999999        7.2635640000000001E-002   0.0000000000000000     
  0.82510813000000005        7.2134840000000006E-002   0.0000000000000000     
  0.92754665000000003       0.17446275999999999        0.0000000000000000     
  0.17501022999999999       0.92789951999999998        0.0000000000000000     
   7.2464680000000004E-002  0.82554053000000005        0.0000000000000000     
  0.30731587999999999       0.50885354999999999        0.0000000000000000     
  0.59033407999999998       0.22171178999999999        0.0000000000000000     
  0.40109191999999999       0.78725542000000004        0.0000000000000000     
  0.35420917000000002       0.63754104000000000        0.0000000000000000     
  0.15983976999999999       0.56665573000000002        0.0000000000000000     
  0.84108459999999996       0.56757886999999996        0.0000000000000000     
  0.83902096000000004       0.43344338999999998        0.0000000000000000     
  0.43230028999999998       0.16004268999999999        0.0000000000000000     
  0.57536027999999995       0.83041363999999995        0.0000000000000000     
  0.15771898000000001       0.42747892999999998        0.0000000000000000     
  0.34021692999999997       0.34221559000000001        0.0000000000000000     
  0.56002271999999997       0.57501117999999996        0.0000000000000000     
  0.65344329000000001       0.78147597999999996        0.0000000000000000     
   0.0000000000000000        0.0000000000000000        0.0000000000000000     
   1.0000000000000000        0.0000000000000000        0.0000000000000000     
   1.0000000000000000        1.0000000000000000        0.0000000000000000     
   0.0000000000000000        1.0000000000000000        0.0000000000000000     
  0.11111111000000000        0.0000000000000000        0.0000000000000000     
  0.22222222000000000        0.0000000000000000        0.0000000000000000     
  0.33333332999999998        0.0000000000000000        0.0000000000000000     
  0.44444444000000000        0.0000000000000000        0.0000000000000000     
  0.55555555999999995        0.0000000000000000        0.0000000000000000     
  0.66666667000000002        0.0000000000000000        0.0000000000000000     
  0.77777777999999997        0.0000000000000000        0.0000000000000000     
  0.88888889000000004        0.0000000000000000        0.0000000000000000     
   1.0000000000000000       0.11111111000000000        0.0000000000000000     
   1.0000000000000000       0.22222222000000000        0.0000000000000000     
   1.0000000000000000       0.33333332999999998        0.0000000000000000     
   1.0000000000000000       0.44444444000000000        0.0000000000000000     
   1.0000000000000000       0.55555555999999995        0.0000000000000000     
   1.0000000000000000       0.66666667000000002        0.0000000000000000     
   1.0000000000000000       0.77777777999999997        0.0000000000000000     
   1.0000000000000000       0.88888889000000004        0.0000000000000000     
  0.88888889000000004        1.0000000000000000        0.0000000000000000     
  0.77777777999999997        1.0000000000000000        0.0000000000000000     
  0.66666667000000002        1.0000000000000000        0.0000000000000000     
  0.55555555999999995        1.0000000000000000        0.0000000000000000     
  0.44444444000000000        1.0000000000000000        0.0000000000000000     
  0.33333332999999998        1.0000000000000000        0.0000000000000000     
  0.22222222000000000        1.0000000000000000        0.0000000000000000     
  0.11111111000000000        1.0000000000000000        0.0000000000000000     
   0.0000000000000000       0.11111111000000000        0.0000000000000000     
   0.0000000000000000       0.22222222000000000        0.0000000000000000     
[...]
 CELL_DATA         354
 SCALARS V float
 LOOKUP_TABLE default
    0.29159308634898869692E-02
    0.74297074962484032853E-02
    0.21771060939451097709E-02
    0.21689920506499406339E-02
    0.33699003430751979168E-02
    0.38410504102471066182E-02
    0.13890410211628699544E-01
    0.84063689838006720040E-02
    0.15924534512767273692E-01
    0.17716763154828594345E-01
    0.20789772757651578394E-01
    0.19566534436738423214E-01
    0.21018042640781560426E-01
    0.21265474224944652670E-01
    0.20914521839334090231E-01
    0.21315215869352692468E-01
    0.20283317654741457592E-01
    0.18618471970131594134E-01
    0.12567873282675652222E-01
    0.17087719767417214323E-01
    0.10173244074015798388E-01
    0.13030072146639128106E-01
    0.15824219941149662155E-01
    0.14245527017157481181E-01
    0.16100908253299878181E-01
    0.15701919926518124321E-01
    0.11256271740035852028E-01
    0.14658868468375879993E-01
    0.77649590709066001332E-02
    0.57338687769764133673E-02
    0.32142674101100360273E-02
    0.36465388245431060513E-02
    0.29599144224200478470E-02
    0.26214045151573741460E-02
    0.22717060676877495751E-02
    0.24343830231443371742E-02
    0.22208460164225589037E-02
    0.22307087547077872336E-02
    0.23836652106365130953E-02
    0.22746700174861899171E-02
    0.23939352726857574677E-02
    0.24163525952449324205E-02
    0.24606737902227570486E-02
    0.24287773761264815423E-02
    0.24530474572503108317E-02
    0.22997025825521044684E-02
    0.22032335846618976427E-02
    0.22339574046231084128E-02
    0.21719690144312514893E-02
    0.21218526205880614346E-02
    0.20980807113163005631E-02
    0.20659582411106276745E-02
    0.30236305218796612551E-02
    0.30539020530000815859E-02
    0.32975528582219076380E-02
    0.31117900398536916563E-02
    0.32746375489633256992E-02
    0.31910593550371979879E-02
    0.30754825800245770215E-02
    0.31505488357494895561E-02
    0.29642541925539644607E-02
    0.27200867476253063129E-02
    0.23749023421767694736E-02
    0.25718507815037996989E-02
    0.22822414685437870593E-02
    0.21451073374804414257E-02
    0.19991217024052619633E-02
    0.20508716792110026628E-02
    0.20428593149893654879E-01
    0.19592474964893552558E-01
    0.19133198829451487227E-01
    0.19897019544026905286E-01
    0.19594768998253637993E-01
    0.19767586914352298921E-01
    0.17946764986175305079E-01
    0.16168379757900558369E-01
    0.16699884182196967491E-01
    0.18668008158377588646E-01
    0.11928614913613976717E-01
    0.14476491985976676358E-01
    0.50203927108076933442E-02
    0.97263037040399985544E-02
    0.14686609817949392021E-01
    0.69094655640111520695E-02
    0.19959216443795974039E-01
    0.19464456703469031063E-01
    0.16674888537247550824E-01
    0.20091964767505788442E-01
    0.20095740991891399702E-01
    0.20567054522763320024E-01
    0.18612910157583748005E-01
    0.73827261894094681899E-02
    0.66919055647888074645E-02
    0.38769934815814132215E-02
    0.36858967631932877847E-02
    0.41115210848305045258E-02
    0.95663660008326427409E-02
    0.15858284217075305916E-01
    0.19566795836795023572E-01
    0.17170961030091101696E-01
    0.18944823400416102577E-01
    0.15898819261248236384E-01
    0.17816190712005346153E-01
    0.20826260289007997306E-01
    0.20950138214419170013E-01
    0.20537456491274384829E-01
    0.20524030507360353781E-01
    0.20746875548220206770E-01
    0.12457915377067967089E-01
    0.91890524369246939784E-02
    0.38233943766100742141E-02
    0.89131536909096732713E-02
    0.44267873560914295164E-02
    0.42702226802925945595E-02
    0.16260571982542805503E-01
    0.60007555588735932151E-02
    0.11850727643943776909E-01
    0.16240339564743674905E-01
    0.15402784985425795744E-01
    0.64619512024610657741E-02
    0.12254015048979449015E-01
    0.29004297437224754730E-02
    0.33146717916139037050E-02
    0.26716723948315905350E-02
    0.35264110953776841781E-02
    0.38146402849535097912E-02
    0.26578277868615396602E-02
    0.28487157951124237459E-02
    0.74977595786391206673E-02
    0.14066712287523097658E-01
    0.44740002140077426290E-02
    0.14992468563117426067E-01
    0.12646358544329931728E-01
    0.41602344238695614792E-02
    0.91554242491943150367E-02
    0.17691450817261450412E-01
    0.19488426911390341334E-01
    0.17013224836747064400E-01
    0.19076927190513962712E-01
    0.19812688733123813567E-01
    0.18131233208506361554E-01
    0.16693732951594660030E-01
    0.24855953769855354020E-02
    0.23845265631323268873E-02
    0.21737973732907146275E-02
    0.28424300765679880176E-02
    0.27464677466564179492E-02
    0.22055723648701989863E-02
    0.22437321748690016755E-02
    0.19554088635206978014E-01
    0.20089782323244018830E-01
    0.20691562708266709320E-01
    0.19781330287423518760E-01
    0.21177907322860976824E-01
    0.19749504004639911042E-01
    0.17066220767531975477E-01
    0.19012136224845516130E-01
    0.19948860999316236214E-01
    0.16898527732077995439E-01
    0.18824225336668224534E-01
    0.14778394786764700516E-01
    0.18267255478200940255E-01
    0.17284892175352881138E-01
    0.16153962339882671495E-01
    0.15955738136810240779E-01
    0.32002602650502585610E-02
    0.38065314323776581334E-02
    0.32206931843044069724E-02
    0.36588139770799316293E-02
    0.39839855769140865988E-02
    0.16781998040373495573E-01
    0.19874629816905343277E-01
    0.18141171384182155912E-01
    0.18116806399305910441E-01
    0.19613882854927083138E-01
    0.79338440358848235506E-02
    0.13321372627832277213E-01
    0.15277341914253804445E-01
    0.57304924106734182396E-02
    0.11348194403199757252E-01
    0.19430427621930580068E-01
    0.17482077427617228466E-01
    0.18890971937715494988E-01
    0.16973011931237850375E-01
    0.18358902956269192164E-01
    0.48228182765642493499E-02
    0.14326195704320716234E-01
    0.93970650259527551545E-02
    0.88504554257263952366E-02
    0.13695996984211866732E-01
    0.20594495354317080005E-01
    0.20693562288267276783E-01
    0.20109401134377709319E-01
    0.20886659273738394926E-01
    0.21248436168631749943E-01
    0.31289441991669028446E-02
    0.41737060118168826592E-02
    0.34342566663248912107E-02
    0.33979509441361961490E-02
    0.39001256666184019178E-02
    0.28522359055707167778E-02
    0.27046777246865745872E-02
    0.30046450285892215004E-02
    0.26518494419671316889E-02
    0.32010863838536182842E-02
    0.18613168000886318176E-01
    0.20353020545120698026E-01
    0.19815641513743997154E-01
    0.20406664650491630753E-01
    0.20475377792794832721E-01
    0.14272996902279962150E-01
    0.13867251406042687897E-01
    0.16191707674411436046E-01
    0.15378208410373336856E-01
    0.16708086739570020274E-01
    0.18874311190423851553E-01
    0.16652704640139345121E-01
    0.16883991399406540063E-01
    0.18557321162911817602E-01
    0.17595923711362964487E-01
    0.15159438036954108950E-01
    0.14568498060605507630E-01
    0.16019360300435405570E-01
    0.48570608159449676910E-02
    0.13565738298597191172E-01
    0.26145385749335265865E-02
    0.28214048472420408600E-02
    0.33974268991501231120E-02
    0.33920156309922198067E-02
    0.33624028162026918173E-02
    0.37650892435957955540E-02
    0.39813326675306095342E-02
    0.57923422737828694426E-02
    0.10244016502631082474E-01
    0.14477961245179837499E-01
    0.13933679033775204018E-01
    0.15588795735395174352E-01
    0.20834195109799696910E-01
    0.20568634646543702826E-01
    0.21530956357644320809E-01
    0.20357912431461802627E-01
    0.14690520145070152386E-01
    0.47168707510331919774E-02
    0.68839076570258520005E-02
    0.19669604171900112455E-01
    0.19489828712054867166E-01
    0.33402195247154353383E-02
    0.27728175300270460277E-02
    0.25488845769226740889E-02
    0.10525716212415478501E-01
    0.39692927196281072369E-02
    0.37645666719021498095E-02
    0.15663572427399796716E-01
    0.16857278015164994106E-01
    0.12673087373455040744E-01
    0.18381170305065492460E-01
    0.16306202147022160615E-01
    0.16222040011879559906E-01
    0.42589459464395622301E-02
    0.42449974867214620988E-02
    0.30260524006048314209E-02
    0.20095272372626964835E-01
    0.21063848097456327330E-01
    0.19557069312640118497E-01
    0.29490954412267162896E-02
    0.28407500745934038955E-02
    0.23124630802094825639E-02
    0.27335788518901785876E-02
    0.24417899662450238615E-02
    0.21958679221210156141E-02
    0.19743472410145523205E-01
    0.21390422189693395622E-01
    0.20121912596344458668E-01
    0.19823622099327226076E-01
    0.13400074340934264860E-01
    0.18160188995847148519E-01
    0.15344916292897439053E-01
    0.15398672873184381105E-01
    0.40988488439122391233E-02
    0.14702199025878381899E-01
    0.12368827779933033728E-01
    0.62665891337593390351E-02
    0.20534169827243493878E-01
    0.20305944177553499064E-01
    0.19147579360544540045E-01
    0.18809408832185653404E-01
    0.18188261975402901516E-01
    0.35748480064802540951E-02
    0.42735136990681675540E-02
    0.24020147996031450399E-02
    0.25446955279670199594E-02
    0.16816664093966531002E-01
    0.15009681403154779070E-01
    0.20200215703370500396E-02
    0.20497635386104249428E-02
    0.15336565232047950219E-01
    0.45711544955745319480E-02
    0.43768778184365341941E-02
    0.19746650855710028150E-01
    0.32351804367258488876E-02
    0.15427736124924412014E-01
    0.21105042603522854161E-01
    0.33928757574656154619E-02
    0.19820905727538900426E-01
    0.16658853849361318633E-01
    0.18089857652088654760E-01
    0.15563412498328672157E-01
    0.17658996490753003927E-01
    0.32914894618527074273E-02
    0.36635552451780178419E-02
    0.12442024985877554386E-01
    0.16128841214630828399E-01
    0.19882036868435176702E-01
    0.55812074671993446712E-02
    0.20087377522128718743E-01
    0.16947908452384717604E-01
    0.16509048677780906178E-01
    0.41963660466921241105E-02
    0.28884949343440766319E-02
    0.25717419621347917605E-02
    0.61553340895065238730E-02
    0.50978713447415117260E-02
    0.21359157607511477898E-02
    0.20924188944138125135E-02
    0.22133484424618835029E-02
    0.21009658686744550615E-02
    0.37425360970096588527E-02
    0.96002255823208516861E-02
    0.11132329240825460104E-01
    0.12404220242237556926E-01
    0.12779279591267223709E-01
    0.12249115566304384986E-01
    0.10976576808580270489E-01
    0.86050218103414025106E-02
    0.10264290649955685325E-01
    0.98158508573591880808E-02
    0.61481430591789482110E-02
    0.33255921002249711621E-02
    0.28014435769189789845E-02
    0.24133087987202204647E-02
    0.21264752907386281176E-02
    0.21726581838333400981E-02
    0.21994220760784537888E-02
    0.21970911494621253764E-02
    0.21410745967608544628E-02
    0.20916363029304021331E-02
    0.21215739467814881403E-02
    0.27317174949893479469E-02
    0.28031568226624427320E-02
    0.27500596867318302663E-02
    0.26167762503971183155E-02
    0.23956494474778092761E-02
    0.21879910164208302148E-02
    0.20911702519798304988E-02
