# vtk DataFile Version 3.0
LAPLACIEN  2D
ASCII
DATASET UNSTRUCTURED_GRID
 POINTS         391  float
  0.50371505999999999       0.50367786999999997        0.0000000000000000     
  0.29013556000000001       0.29014535000000002        0.0000000000000000     
  0.70165584999999997       0.71206597999999999        0.0000000000000000     
  0.70304188999999995       0.30176619999999998        0.0000000000000000     
  0.30920671999999999       0.71149227999999998        0.0000000000000000     
  0.79044983999999996       0.49884783999999999        0.0000000000000000     
  0.49102621000000002       0.20968644000000000        0.0000000000000000     
  0.49912957000000002       0.77208717000000004        0.0000000000000000     
  0.21724072999999999       0.48989389000000000        0.0000000000000000     
  0.83255933999999998       0.83046598000000005        0.0000000000000000     
  0.16646774000000000       0.17015694000000001        0.0000000000000000     
  0.83054514999999995       0.16736480000000001        0.0000000000000000     
  0.16953130999999999       0.83265739000000005        0.0000000000000000     
  0.42166445000000002       0.36345201999999999        0.0000000000000000     
  0.64462200999999997       0.56347807999999999        0.0000000000000000     
  0.35324633999999999       0.56311191000000005        0.0000000000000000     
  0.65456411000000003       0.84856860999999995        0.0000000000000000     
  0.35141477999999998       0.15563974000000000        0.0000000000000000     
  0.15290967000000000       0.35206625000000003        0.0000000000000000     
  0.82942241000000005       0.34936866000000000        0.0000000000000000     
  0.84390527000000004       0.64441694999999999        0.0000000000000000     
  0.63699174999999997       0.14284276000000001        0.0000000000000000     
  0.15620682999999999       0.64648446999999998        0.0000000000000000     
  0.36426062999999997       0.85756310999999996        0.0000000000000000     
  0.63489340999999999       0.40519052000000000        0.0000000000000000     
  0.52518872999999999       0.65957078000000002        0.0000000000000000     
  0.32158959999999998       0.42298103999999997        0.0000000000000000     
  0.58861710000000000       0.31711036999999997        0.0000000000000000     
  0.42078418000000001       0.69497151999999995        0.0000000000000000     
  0.48608786999999998       0.89334152000000000        0.0000000000000000     
   9.7084320000000002E-002  0.50000000000000000        0.0000000000000000     
  0.90291568000000000       0.50000000000000000        0.0000000000000000     
  0.51392453000000005       0.10668648999999999        0.0000000000000000     
  0.59792566999999996       0.73122754000000001        0.0000000000000000     
  0.74510058999999995       0.41124730999999998        0.0000000000000000     
  0.73212551999999997       0.90191560000000004        0.0000000000000000     
   9.7784830000000003E-002  0.26957329000000002        0.0000000000000000     
  0.26711221000000002        9.8671499999999995E-002   0.0000000000000000     
  0.90191560000000004       0.26787448000000003        0.0000000000000000     
  0.90118569000000004       0.73039821000000005        0.0000000000000000     
  0.73122947000000005        9.8017859999999998E-002   0.0000000000000000     
   9.8084400000000002E-002  0.73212551999999997        0.0000000000000000     
  0.26957329000000002       0.90221516999999996        0.0000000000000000     
  0.39283522999999998       0.25360379000000000        0.0000000000000000     
  0.74480864000000002       0.60495284999999999        0.0000000000000000     
  0.25505132000000003       0.60593640999999998        0.0000000000000000     
  0.52159297999999998       0.40671636000000000        0.0000000000000000     
  0.40768852000000000       0.47699891000000000        0.0000000000000000     
   9.1467049999999994E-002   9.1876959999999994E-002   0.0000000000000000     
  0.90842484999999995       0.90819225000000003        0.0000000000000000     
  0.90820104999999995        9.1566729999999999E-002   0.0000000000000000     
   9.1807449999999999E-002  0.90843574000000005        0.0000000000000000     
  0.27098960000000000       0.20527094000000001        0.0000000000000000     
  0.73457293999999995       0.79835387000000002        0.0000000000000000     
  0.79817773000000003       0.25713470999999999        0.0000000000000000     
  0.20747797000000001       0.72863946000000002        0.0000000000000000     
  0.20175195000000001       0.27583914999999998        0.0000000000000000     
  0.79603889000000005       0.72159035000000005        0.0000000000000000     
  0.71761666000000002       0.19748431999999999        0.0000000000000000     
  0.28462607000000001       0.80251899999999998        0.0000000000000000     
  0.69134598999999997       0.49261972999999998        0.0000000000000000     
  0.44720578999999999       0.58582935999999997        0.0000000000000000     
  0.24242269999999999       0.37228174000000003        0.0000000000000000     
  0.38265623999999998       0.93072131999999996        0.0000000000000000     
  0.60971754000000000       0.91988369000000003        0.0000000000000000     
   7.9163609999999995E-002  0.60979116000000000        0.0000000000000000     
  0.92010649000000000       0.61081183999999999        0.0000000000000000     
  0.61954008999999999        7.1530830000000004E-002   0.0000000000000000     
  0.91882012999999996       0.38917363999999999        0.0000000000000000     
  0.39086346000000000        8.0652249999999995E-002   0.0000000000000000     
   7.9183480000000001E-002  0.38966213000000000        0.0000000000000000     
  0.59114111999999996       0.49294315000000000        0.0000000000000000     
  0.63337980999999999       0.64485914000000000        0.0000000000000000     
  0.50012352000000004       0.29676539000000002        0.0000000000000000     
  0.82552601000000003       0.92753492000000004        0.0000000000000000     
  0.92774772999999999       0.82498556999999995        0.0000000000000000     
   7.1970870000000006E-002  0.17510291000000000        0.0000000000000000     
  0.17422821999999999        7.2635640000000001E-002   0.0000000000000000     
  0.82510813000000005        7.2134840000000006E-002   0.0000000000000000     
  0.92754665000000003       0.17446275999999999        0.0000000000000000     
  0.17501022999999999       0.92789951999999998        0.0000000000000000     
   7.2464680000000004E-002  0.82554053000000005        0.0000000000000000     
  0.30731587999999999       0.50885354999999999        0.0000000000000000     
  0.59033407999999998       0.22171178999999999        0.0000000000000000     
  0.40109191999999999       0.78725542000000004        0.0000000000000000     
  0.35420917000000002       0.63754104000000000        0.0000000000000000     
  0.15983976999999999       0.56665573000000002        0.0000000000000000     
  0.84108459999999996       0.56757886999999996        0.0000000000000000     
  0.83902096000000004       0.43344338999999998        0.0000000000000000     
  0.43230028999999998       0.16004268999999999        0.0000000000000000     
  0.57536027999999995       0.83041363999999995        0.0000000000000000     
  0.15771898000000001       0.42747892999999998        0.0000000000000000     
  0.34021692999999997       0.34221559000000001        0.0000000000000000     
  0.56002271999999997       0.57501117999999996        0.0000000000000000     
  0.65344329000000001       0.78147597999999996        0.0000000000000000     
   0.0000000000000000        0.0000000000000000        0.0000000000000000     
   1.0000000000000000        0.0000000000000000        0.0000000000000000     
   1.0000000000000000        1.0000000000000000        0.0000000000000000     
   0.0000000000000000        1.0000000000000000        0.0000000000000000     
  0.11111111000000000        0.0000000000000000        0.0000000000000000     
  0.22222222000000000        0.0000000000000000        0.0000000000000000     
  0.33333332999999998        0.0000000000000000        0.0000000000000000     
  0.44444444000000000        0.0000000000000000        0.0000000000000000     
  0.55555555999999995        0.0000000000000000        0.0000000000000000     
  0.66666667000000002        0.0000000000000000        0.0000000000000000     
  0.77777777999999997        0.0000000000000000        0.0000000000000000     
  0.88888889000000004        0.0000000000000000        0.0000000000000000     
   1.0000000000000000       0.11111111000000000        0.0000000000000000     
   1.0000000000000000       0.22222222000000000        0.0000000000000000     
   1.0000000000000000       0.33333332999999998        0.0000000000000000     
   1.0000000000000000       0.44444444000000000        0.0000000000000000     
   1.0000000000000000       0.55555555999999995        0.0000000000000000     
   1.0000000000000000       0.66666667000000002        0.0000000000000000     
   1.0000000000000000       0.77777777999999997        0.0000000000000000     
   1.0000000000000000       0.88888889000000004        0.0000000000000000     
  0.88888889000000004        1.0000000000000000        0.0000000000000000     
  0.77777777999999997        1.0000000000000000        0.0000000000000000     
  0.66666667000000002        1.0000000000000000        0.0000000000000000     
  0.55555555999999995        1.0000000000000000        0.0000000000000000     
  0.44444444000000000        1.0000000000000000        0.0000000000000000     
  0.33333332999999998        1.0000000000000000        0.0000000000000000     
  0.22222222000000000        1.0000000000000000        0.0000000000000000     
  0.11111111000000000        1.0000000000000000        0.0000000000000000     
   0.0000000000000000       0.11111111000000000        0.0000000000000000     
   0.0000000000000000       0.22222222000000000        0.0000000000000000     
[...]
 CELL_DATA         354
 SCALARS V float
 LOOKUP_TABLE default
    0.28136499385430558708E-02
    0.77173370214705747788E-02
    0.21063291049346379025E-02
    0.21095394436909083516E-02
    0.32508916649629268462E-02
    0.37367519609172086120E-02
    0.13760590008275125004E-01
    0.82559849565302153435E-02
    0.15697547224085006690E-01
    0.17223588434174517264E-01
    0.20122980257604387855E-01
    0.18949903274985146345E-01
    0.20372495300063204332E-01
    0.20610147044176900522E-01
    0.20267873812361066055E-01
    0.20645355504169529692E-01
    0.19656744890071787407E-01
    0.18071811222054801754E-01
    0.12427619340232001419E-01
    0.16631658862780736297E-01
    0.10376844846017366925E-01
    0.12952624474344070354E-01
    0.15505702342192201337E-01
    0.14052923469596179801E-01
    0.15744844258554262229E-01
    0.15341931409863111824E-01
    0.11201764399766701852E-01
    0.14325358660684659601E-01
    0.79585400463703138974E-02
    0.57767252609841994448E-02
    0.31018773084103669693E-02
    0.35204675289832042424E-02
    0.28565226540935373736E-02
    0.25299867367012977490E-02
    0.21949808061109111167E-02
    0.23509648018783147090E-02
    0.21468168054514956064E-02
    0.21554128269667548363E-02
    0.23014075462777414637E-02
    0.21966837119531340897E-02
    0.23111395867960859291E-02
    0.23326351801628243329E-02
    0.23752755720673193393E-02
    0.23444798349402328451E-02
    0.23679398858970890883E-02
    0.22200930672580890951E-02
    0.21282371400710735007E-02
    0.21573706194033346467E-02
    0.20995120634419196792E-02
    0.20537825219808574992E-02
    0.20365320207837286567E-02
    0.20021106170532614391E-02
    0.29170407868791643421E-02
    0.29454825370086000491E-02
    0.31812908355574450944E-02
    0.30012783054187983436E-02
    0.31598081569402624962E-02
    0.30787486710576964649E-02
    0.29673832646456808904E-02
    0.30394693862626190502E-02
    0.28603307750112972295E-02
    0.26247386001577942792E-02
    0.22928928532344274895E-02
    0.24823412755583104325E-02
    0.22046685301622412703E-02
    0.20734172090640847624E-02
    0.19367444691874538716E-02
    0.19847901602247294828E-02
    0.19855906880672825887E-01
    0.18982045129325421373E-01
    0.18492393743926201222E-01
    0.19294624615608706175E-01
    0.18929278703618646756E-01
    0.19101606549297829585E-01
    0.17326329903838578322E-01
    0.15653414852106646571E-01
    0.16149571943334772861E-01
    0.18043683014671928200E-01
    0.11822269782440988570E-01
    0.14202519408697482362E-01
    0.49776353556750694770E-02
    0.96194961156227595800E-02
    0.14453959401327362566E-01
    0.68271309689518257235E-02
    0.19364203727420904733E-01
    0.19261263689411563249E-01
    0.16517881627562635422E-01
    0.19664776938994918409E-01
    0.19526228369910407501E-01
    0.20298806222961436607E-01
    0.18498304846598312423E-01
    0.72935054196084500230E-02
    0.67015054805018257900E-02
    0.37462107108550803461E-02
    0.35592525871975394525E-02
    0.39747734458333069257E-02
    0.96320528615235455339E-02
    0.15321923554640300147E-01
    0.18902784843006670279E-01
    0.16587908194781730842E-01
    0.18302403614471267346E-01
    0.15367293432629845762E-01
    0.17204323683656423671E-01
    0.20417910131703395638E-01
    0.20481991919775351108E-01
    0.20420995642640889234E-01
    0.20471146897832998013E-01
    0.20283274931232379845E-01
    0.12291677234754952441E-01
    0.91339338057619939154E-02
    0.36906054141930362197E-02
    0.88108180300412973496E-02
    0.43896049444998117700E-02
    0.42000999514455591641E-02
    0.15815297679959053334E-01
    0.60065719071224592251E-02
    0.11761399472647145886E-01
    0.15785185676421186612E-01
    0.15070828120646801232E-01
    0.64547812907010480160E-02
    0.12047348382892304058E-01
    0.27994253502917234959E-02
    0.31995308221792963417E-02
    0.25796280366929139408E-02
    0.34043156232833274993E-02
    0.36833178913642235057E-02
    0.25661766806367343474E-02
    0.27500414148341817064E-02
    0.74405228882971820997E-02
    0.13816837541438552195E-01
    0.44463008459943364689E-02
    0.14638589786239681462E-01
    0.12486488442178825253E-01
    0.40222067236578224261E-02
    0.91000230169484344622E-02
    0.17096603384876857962E-01
    0.18879968929727167226E-01
    0.16512865333076515856E-01
    0.18438224474103370731E-01
    0.19177349256471569461E-01
    0.17580282308060878049E-01
    0.16171234057404462736E-01
    0.23998064681227402120E-02
    0.23024927133476974853E-02
    0.21003208386770476530E-02
    0.27438988147416168775E-02
    0.26508848825513514971E-02
    0.21306725166677815964E-02
    0.21673163865778351418E-02
    0.18916785008588812150E-01
    0.19597661190835308220E-01
    0.20321302916027100816E-01
    0.19175674345907268298E-01
    0.20840185627323988549E-01
    0.19175763417243491676E-01
    0.16492009761278639268E-01
    0.18371358640826049302E-01
    0.19274614789137785309E-01
    0.16325343778261492550E-01
    0.18173818583906299617E-01
    0.14378867689105363087E-01
    0.17660862924366346749E-01
    0.16716142924758772836E-01
    0.15628985764873593034E-01
    0.15514191835866416105E-01
    0.30883461920433092664E-02
    0.36743797432124271178E-02
    0.31076747647366684615E-02
    0.35323289201380130356E-02
    0.38470680395405422100E-02
    0.16294398376830707131E-01
    0.19225930220286985284E-01
    0.17528763326772826836E-01
    0.17601421173276499826E-01
    0.19003241892754194065E-01
    0.78936728925231187948E-02
    0.13133990031629698761E-01
    0.14839508765174942023E-01
    0.57329361166209898831E-02
    0.11101181186715483248E-01
    0.18810765856117000333E-01
    0.16908138220774755756E-01
    0.18284824666544768901E-01
    0.16408422029998145225E-01
    0.17727504163611788879E-01
    0.47319318994151829405E-02
    0.14092023202464380727E-01
    0.92248617581535546917E-02
    0.86332806367456597918E-02
    0.13440661574123515670E-01
    0.20173834023262816884E-01
    0.20128712891955148623E-01
    0.19726360037916348955E-01
    0.20347967563041705064E-01
    0.20906363926353969951E-01
    0.30197611236517985824E-02
    0.40359624219269783080E-02
    0.33155011323014356439E-02
    0.32788342694084148497E-02
    0.37670193874629726537E-02
    0.27527939285768780568E-02
    0.26100771860898801940E-02
    0.28993832773691451815E-02
    0.25591183147074540900E-02
    0.30893720907968964286E-02
    0.18450710226438543637E-01
    0.19922239009467376109E-01
    0.19623498016432358582E-01
    0.19817701173701018913E-01
    0.20084274946049533034E-01
    0.13978476508009674353E-01
    0.13604579429174252017E-01
    0.15691897926855026546E-01
    0.14948135912398087186E-01
    0.16149767051829379966E-01
    0.18250852826363496428E-01
    0.16143114954147112089E-01
    0.16365662904716683085E-01
    0.17944839588930297514E-01
    0.17412168805657483872E-01
    0.15088322106212196522E-01
    0.14492082718875934355E-01
    0.15554047356564130317E-01
    0.48137013668424905033E-02
    0.13293311721245197610E-01
    0.25234603324708160081E-02
    0.27227134618583812703E-02
    0.32779611866228515298E-02
    0.32738120793075866158E-02
    0.32440536510697768648E-02
    0.36340673613543951308E-02
    0.38847557611454671192E-02
    0.57603978053910580986E-02
    0.10260821064486499304E-01
    0.14108383652814325548E-01
    0.13589917825324919487E-01
    0.15070973726422997804E-01
    0.20290262205425312059E-01
    0.19918375485726995400E-01
    0.21141984627046511019E-01
    0.19809019404764004191E-01
    0.14434154213269144787E-01
    0.46359395155442717149E-02
    0.67920922986770696297E-02
    0.19055765314716970049E-01
    0.18822173045299803174E-01
    0.32243955418419668196E-02
    0.26757279777918424254E-02
    0.24607098506350538747E-02
    0.10544569855264088881E-01
    0.38943542742651726836E-02
    0.36372333413024053074E-02
    0.15236576544528547192E-01
    0.16437697340923047851E-01
    0.12478860174249796489E-01
    0.17757145244998533834E-01
    0.15888094101069283326E-01
    0.15825716695480836205E-01
    0.41583910671933056041E-02
    0.41244719379596467973E-02
    0.29210569619074148312E-02
    0.19523001146584617604E-01
    0.20435141206196362484E-01
    0.18954188051761827749E-01
    0.28466668693761330161E-02
    0.27413764613820230942E-02
    0.22336004224168403039E-02
    0.26385176016219032830E-02
    0.23571855026262833986E-02
    0.21214477325996843049E-02
    0.19063673107442759280E-01
    0.20890067480854632165E-01
    0.19588391383388539801E-01
    0.19242760780651783914E-01
    0.13148605833993810485E-01
    0.17538196037390874071E-01
    0.14938953994249042079E-01
    0.15031167634694357627E-01
    0.39638651534068094009E-02
    0.14361388262680702815E-01
    0.12271284417288563437E-01
    0.62248995218693280174E-02
    0.19942127300127163170E-01
    0.19942843066041788386E-01
    0.18958881739012948403E-01
    0.18188542540593728020E-01
    0.17585057314133078349E-01
    0.34486999414373243136E-02
    0.42509964629554577650E-02
    0.23200011848908646921E-02
    0.24572218366257858949E-02
    0.16359331808543743636E-01
    0.14761007586018216192E-01
    0.19529887185648392607E-02
    0.19813930737852384657E-02
    0.14887081009002593734E-01
    0.45288540039822343733E-02
    0.42387126305978442900E-02
    0.19159368264881959654E-01
    0.31222852346364420376E-02
    0.15019313199784790555E-01
    0.20956101296253408506E-01
    0.32745994635147738713E-02
    0.19204029323844025445E-01
    0.16136441706545687907E-01
    0.17472982905809918142E-01
    0.15075527694647034363E-01
    0.17061647610073130132E-01
    0.31767044083248190817E-02
    0.35353075059386994752E-02
    0.12200115580657922010E-01
    0.15588024568065895342E-01
    0.19262700171019414563E-01
    0.55251041977037521069E-02
    0.19404872744389293354E-01
    0.16373794162658106277E-01
    0.16661218731427770989E-01
    0.40545914558088877802E-02
    0.27867789325029270441E-02
    0.24814959526664693776E-02
    0.61522855964250390895E-02
    0.52454970170514704855E-02
    0.20673558024274754814E-02
    0.20262729604483007209E-02
    0.21574881640794661003E-02
    0.20445200085835836881E-02
    0.36402590446019851556E-02
    0.95072356698452861745E-02
    0.10782699659596443192E-01
    0.12002329924644818127E-01
    0.12364406112258113923E-01
    0.11861207438193355213E-01
    0.10652975199916342453E-01
    0.84536808756779310836E-02
    0.99845993589129447554E-02
    0.95342061611193053283E-02
    0.61550297059717179460E-02
    0.32085423989488231870E-02
    0.27026768112654829535E-02
    0.23303263519716776835E-02
    0.20553605579021936266E-02
    0.20982772552096285584E-02
    0.21235341256134305198E-02
    0.21214576941862963236E-02
    0.20681845525086983359E-02
    0.20229593257965767378E-02
    0.20585802981007410989E-02
    0.26351065240455906827E-02
    0.27038409084026884636E-02
    0.26526470797240309270E-02
    0.25244847497944019298E-02
    0.23119624712882392084E-02
    0.21137321411601669996E-02
    0.20250798907478981259E-02
