# vtk DataFile Version 3.0
LAPLACIEN  2D
ASCII
DATASET UNSTRUCTURED_GRID
 POINTS         391  float
  0.50371505999999999       0.50367786999999997        0.0000000000000000     
  0.29013556000000001       0.29014535000000002        0.0000000000000000     
  0.70165584999999997       0.71206597999999999        0.0000000000000000     
  0.70304188999999995       0.30176619999999998        0.0000000000000000     
  0.30920671999999999       0.71149227999999998        0.0000000000000000     
  0.79044983999999996       0.49884783999999999        0.0000000000000000     
  0.49102621000000002       0.20968644000000000        0.0000000000000000     
  0.49912957000000002       0.77208717000000004        0.0000000000000000     
  0.21724072999999999       0.48989389000000000        0.0000000000000000     
  0.83255933999999998       0.83046598000000005        0.0000000000000000     
  0.16646774000000000       0.17015694000000001        0.0000000000000000     
  0.83054514999999995       0.16736480000000001        0.0000000000000000     
  0.16953130999999999       0.83265739000000005        0.0000000000000000     
  0.42166445000000002       0.36345201999999999        0.0000000000000000     
  0.64462200999999997       0.56347807999999999        0.0000000000000000     
  0.35324633999999999       0.56311191000000005        0.0000000000000000     
  0.65456411000000003       0.84856860999999995        0.0000000000000000     
  0.35141477999999998       0.15563974000000000        0.0000000000000000     
  0.15290967000000000       0.35206625000000003        0.0000000000000000     
  0.82942241000000005       0.34936866000000000        0.0000000000000000     
  0.84390527000000004       0.64441694999999999        0.0000000000000000     
  0.63699174999999997       0.14284276000000001        0.0000000000000000     
  0.15620682999999999       0.64648446999999998        0.0000000000000000     
  0.36426062999999997       0.85756310999999996        0.0000000000000000     
  0.63489340999999999       0.40519052000000000        0.0000000000000000     
  0.52518872999999999       0.65957078000000002        0.0000000000000000     
  0.32158959999999998       0.42298103999999997        0.0000000000000000     
  0.58861710000000000       0.31711036999999997        0.0000000000000000     
  0.42078418000000001       0.69497151999999995        0.0000000000000000     
  0.48608786999999998       0.89334152000000000        0.0000000000000000     
   9.7084320000000002E-002  0.50000000000000000        0.0000000000000000     
  0.90291568000000000       0.50000000000000000        0.0000000000000000     
  0.51392453000000005       0.10668648999999999        0.0000000000000000     
  0.59792566999999996       0.73122754000000001        0.0000000000000000     
  0.74510058999999995       0.41124730999999998        0.0000000000000000     
  0.73212551999999997       0.90191560000000004        0.0000000000000000     
   9.7784830000000003E-002  0.26957329000000002        0.0000000000000000     
  0.26711221000000002        9.8671499999999995E-002   0.0000000000000000     
  0.90191560000000004       0.26787448000000003        0.0000000000000000     
  0.90118569000000004       0.73039821000000005        0.0000000000000000     
  0.73122947000000005        9.8017859999999998E-002   0.0000000000000000     
   9.8084400000000002E-002  0.73212551999999997        0.0000000000000000     
  0.26957329000000002       0.90221516999999996        0.0000000000000000     
  0.39283522999999998       0.25360379000000000        0.0000000000000000     
  0.74480864000000002       0.60495284999999999        0.0000000000000000     
  0.25505132000000003       0.60593640999999998        0.0000000000000000     
  0.52159297999999998       0.40671636000000000        0.0000000000000000     
  0.40768852000000000       0.47699891000000000        0.0000000000000000     
   9.1467049999999994E-002   9.1876959999999994E-002   0.0000000000000000     
  0.90842484999999995       0.90819225000000003        0.0000000000000000     
  0.90820104999999995        9.1566729999999999E-002   0.0000000000000000     
   9.1807449999999999E-002  0.90843574000000005        0.0000000000000000     
  0.27098960000000000       0.20527094000000001        0.0000000000000000     
  0.73457293999999995       0.79835387000000002        0.0000000000000000     
  0.79817773000000003       0.25713470999999999        0.0000000000000000     
  0.20747797000000001       0.72863946000000002        0.0000000000000000     
  0.20175195000000001       0.27583914999999998        0.0000000000000000     
  0.79603889000000005       0.72159035000000005        0.0000000000000000     
  0.71761666000000002       0.19748431999999999        0.0000000000000000     
  0.28462607000000001       0.80251899999999998        0.0000000000000000     
  0.69134598999999997       0.49261972999999998        0.0000000000000000     
  0.44720578999999999       0.58582935999999997        0.0000000000000000     
  0.24242269999999999       0.37228174000000003        0.0000000000000000     
  0.38265623999999998       0.93072131999999996        0.0000000000000000     
  0.60971754000000000       0.91988369000000003        0.0000000000000000     
   7.9163609999999995E-002  0.60979116000000000        0.0000000000000000     
  0.92010649000000000       0.61081183999999999        0.0000000000000000     
  0.61954008999999999        7.1530830000000004E-002   0.0000000000000000     
  0.91882012999999996       0.38917363999999999        0.0000000000000000     
  0.39086346000000000        8.0652249999999995E-002   0.0000000000000000     
   7.9183480000000001E-002  0.38966213000000000        0.0000000000000000     
  0.59114111999999996       0.49294315000000000        0.0000000000000000     
  0.63337980999999999       0.64485914000000000        0.0000000000000000     
  0.50012352000000004       0.29676539000000002        0.0000000000000000     
  0.82552601000000003       0.92753492000000004        0.0000000000000000     
  0.92774772999999999       0.82498556999999995        0.0000000000000000     
   7.1970870000000006E-002  0.17510291000000000        0.0000000000000000     
  0.17422821999999999        7.2635640000000001E-002   0.0000000000000000     
  0.82510813000000005        7.2134840000000006E-002   0.0000000000000000     
  0.92754665000000003       0.17446275999999999        0.0000000000000000     
  0.17501022999999999       0.92789951999999998        0.0000000000000000     
   7.2464680000000004E-002  0.82554053000000005        0.0000000000000000     
  0.30731587999999999       0.50885354999999999        0.0000000000000000     
  0.59033407999999998       0.22171178999999999        0.0000000000000000     
  0.40109191999999999       0.78725542000000004        0.0000000000000000     
  0.35420917000000002       0.63754104000000000        0.0000000000000000     
  0.15983976999999999       0.56665573000000002        0.0000000000000000     
  0.84108459999999996       0.56757886999999996        0.0000000000000000     
  0.83902096000000004       0.43344338999999998        0.0000000000000000     
  0.43230028999999998       0.16004268999999999        0.0000000000000000     
  0.57536027999999995       0.83041363999999995        0.0000000000000000     
  0.15771898000000001       0.42747892999999998        0.0000000000000000     
  0.34021692999999997       0.34221559000000001        0.0000000000000000     
  0.56002271999999997       0.57501117999999996        0.0000000000000000     
  0.65344329000000001       0.78147597999999996        0.0000000000000000     
   0.0000000000000000        0.0000000000000000        0.0000000000000000     
   1.0000000000000000        0.0000000000000000        0.0000000000000000     
   1.0000000000000000        1.0000000000000000        0.0000000000000000     
   0.0000000000000000        1.0000000000000000        0.0000000000000000     
  0.11111111000000000        0.0000000000000000        0.0000000000000000     
  0.22222222000000000        0.0000000000000000        0.0000000000000000     
  0.33333332999999998        0.0000000000000000        0.0000000000000000     
  0.44444444000000000        0.0000000000000000        0.0000000000000000     
  0.55555555999999995        0.0000000000000000        0.0000000000000000     
  0.66666667000000002        0.0000000000000000        0.0000000000000000     
  0.77777777999999997        0.0000000000000000        0.0000000000000000     
  0.88888889000000004        0.0000000000000000        0.0000000000000000     
   1.0000000000000000       0.11111111000000000        0.0000000000000000     
   1.0000000000000000       0.22222222000000000        0.0000000000000000     
   1.0000000000000000       0.33333332999999998        0.0000000000000000     
   1.0000000000000000       0.44444444000000000        0.0000000000000000     
   1.0000000000000000       0.55555555999999995        0.0000000000000000     
   1.0000000000000000       0.66666667000000002        0.0000000000000000     
   1.0000000000000000       0.77777777999999997        0.0000000000000000     
   1.0000000000000000       0.88888889000000004        0.0000000000000000     
  0.88888889000000004        1.0000000000000000        0.0000000000000000     
  0.77777777999999997        1.0000000000000000        0.0000000000000000     
  0.66666667000000002        1.0000000000000000        0.0000000000000000     
  0.55555555999999995        1.0000000000000000        0.0000000000000000     
  0.44444444000000000        1.0000000000000000        0.0000000000000000     
  0.33333332999999998        1.0000000000000000        0.0000000000000000     
  0.22222222000000000        1.0000000000000000        0.0000000000000000     
  0.11111111000000000        1.0000000000000000        0.0000000000000000     
   0.0000000000000000       0.11111111000000000        0.0000000000000000     
   0.0000000000000000       0.22222222000000000        0.0000000000000000     
[...]
 CELL_DATA         354
 SCALARS V float
 LOOKUP_TABLE default
    0.30852250055538300855E-01
    0.40782950300842314706E-01
    0.22327132734646190637E-01
    0.18623083707875194570E-01
    0.33611069896503038834E-01
    0.36268594154441773092E-01
    0.43315044071598397812E-01
    0.39491214292747101045E-01
    0.46980945235381765812E-01
    0.50855838894667257377E-01
    0.58525625505323919384E-01
    0.54338672040409090325E-01
    0.60166927915879964139E-01
    0.59181915894566450298E-01
    0.56937270152619207098E-01
    0.58293682743022497139E-01
    0.54234481649702286077E-01
    0.50199669095266734320E-01
    0.43971054856111857490E-01
    0.46851963299661701645E-01
    0.42663004301653748018E-01
    0.43881416839131728858E-01
    0.47125344479827635524E-01
    0.45331968745111389518E-01
    0.47491630755238628536E-01
    0.46472935722968865269E-01
    0.43925191484729661506E-01
    0.45355101338234046771E-01
    0.41821184882919588965E-01
    0.38794966630515279049E-01
    0.33564822853440284822E-01
    0.36223666706582530184E-01
    0.30995798572149291239E-01
    0.28283132088380322916E-01
    0.24229907173045482638E-01
    0.26042484157114114546E-01
    0.23246001888146020781E-01
    0.23874416738795426612E-01
    0.25943889439356680737E-01
    0.24751904651804955415E-01
    0.26558263052052565739E-01
    0.26677494941352072194E-01
    0.27201447651275596079E-01
    0.26853876653507257471E-01
    0.26794657785544101491E-01
    0.25510370928065118773E-01
    0.24146695581284797344E-01
    0.24719318957709235374E-01
    0.23136136483164287947E-01
    0.21675412229783648510E-01
    0.19678278941006200481E-01
    0.20544859447898255328E-01
    0.31869539953653665265E-01
    0.32402842753180643998E-01
    0.34300982430859182359E-01
    0.33191809811282876885E-01
    0.34493721381577559237E-01
    0.33808113604524472895E-01
    0.32618244540657696795E-01
    0.33221176031119820093E-01
    0.31449853131973112830E-01
    0.29592798536204608512E-01
    0.26407247060920256698E-01
    0.28030230245130224875E-01
    0.24717551688136225885E-01
    0.22792394602346097154E-01
    0.19991370741823388801E-01
    0.21232704145547447172E-01
    0.70507123588965742167E-01
    0.63446555425819103902E-01
    0.59158582446248580977E-01
    0.66782794046998508741E-01
    0.61187284368299260651E-01
    0.61160536810559794352E-01
    0.54716486699961590368E-01
    0.51450600873319568551E-01
    0.53274562527353380714E-01
    0.58824333687843420593E-01
    0.42557788647741207066E-01
    0.45878608654421129676E-01
    0.38695217499167877673E-01
    0.40884873016102912802E-01
    0.46120785812296602457E-01
    0.39849267394004864173E-01
    0.68635299637928415262E-01
    0.79857966868861290921E-01
    0.87689910690574746077E-01
    0.72591986228208546517E-01
    0.70347249160663427592E-01
    0.75330442670325181709E-01
    0.83583150135065453767E-01
    0.40016560744355569867E-01
    0.39020173666615365349E-01
    0.34945397339377050339E-01
    0.34191787861284121675E-01
    0.36502781442731391248E-01
    0.41060974450324305707E-01
    0.51458666153042689761E-01
    0.61398558999854656315E-01
    0.53533836221439888570E-01
    0.59898835676247659532E-01
    0.51206523781864264622E-01
    0.56119442752099811533E-01
    0.72961497996945109956E-01
    0.73611690236571186707E-01
    0.81470206642183323753E-01
    0.81418794215828357852E-01
    0.71551026308495316308E-01
    0.43184637304927178669E-01
    0.40756987511351490394E-01
    0.34327541884602616462E-01
    0.40472591328920566600E-01
    0.36807990342260669958E-01
    0.36418523565105484496E-01
    0.50220358582117888280E-01
    0.39507014391638312079E-01
    0.42760599046742911455E-01
    0.47432055106741498329E-01
    0.47438594946615258996E-01
    0.40125547471943294464E-01
    0.42724382200922735031E-01
    0.30021119761895732891E-01
    0.32703302605962665528E-01
    0.27827260153938524617E-01
    0.33173431705101834310E-01
    0.34789460570874633505E-01
    0.28187039188569313480E-01
    0.29628912029944470818E-01
    0.40237674193249986510E-01
    0.45012321291683435320E-01
    0.38115392718882479262E-01
    0.47236870230799275772E-01
    0.44600223628788612795E-01
    0.38203779538783497194E-01
    0.40813600572941761968E-01
    0.54908303416308895661E-01
    0.59128293351885935492E-01
    0.51015280418540934204E-01
    0.60727191090764028047E-01
    0.63679710448995854866E-01
    0.53925527877906248575E-01
    0.51783578689303090548E-01
    0.26890816652191985858E-01
    0.26080161315675101652E-01
    0.23386213505490246328E-01
    0.29111852212227763703E-01
    0.28662879053423316600E-01
    0.24100925051575634861E-01
    0.24552308193559437693E-01
    0.63365475756281111619E-01
    0.70487191777693178341E-01
    0.74956892692047236149E-01
    0.66445618979114981495E-01
    0.77827076537507630660E-01
    0.65753644302016620027E-01
    0.54583689680379979259E-01
    0.60826278137312228544E-01
    0.62782964195423549003E-01
    0.54010683351685490061E-01
    0.58086917321209331766E-01
    0.45737652398662703712E-01
    0.54869382993445570129E-01
    0.51825817770510360094E-01
    0.50213423985454218312E-01
    0.47166688190712693918E-01
    0.31159661038777455161E-01
    0.34004441334243205863E-01
    0.31112263787793890263E-01
    0.33750369884367401041E-01
    0.35343119356171855128E-01
    0.53143450138449926934E-01
    0.62604083292922177439E-01
    0.55731394335855333200E-01
    0.57161014569167938049E-01
    0.62463100901698487277E-01
    0.40417151939890892665E-01
    0.44519675837571881516E-01
    0.45876460028936638658E-01
    0.39330405709813005821E-01
    0.42038507272007204219E-01
    0.64332988334494786709E-01
    0.56459800891976372195E-01
    0.62686804495889245081E-01
    0.54824054929812619796E-01
    0.58123496204656233122E-01
    0.38269026947828591045E-01
    0.45493920103744006633E-01
    0.40627876763952026906E-01
    0.40861423097502631852E-01
    0.44724817733668202624E-01
    0.70280249964444388433E-01
    0.66347300740280001907E-01
    0.71860043485978616906E-01
    0.66946534046891090219E-01
    0.77234481804783830516E-01
    0.30595907501216216412E-01
    0.36733433546665909819E-01
    0.32987988507348006695E-01
    0.32129476843727036717E-01
    0.35310881789549636300E-01
    0.30352097056946306802E-01
    0.28172276559722583822E-01
    0.30697148035646187880E-01
    0.28400430640649759750E-01
    0.32494256237802623954E-01
    0.86763669183648500782E-01
    0.73172799567459617665E-01
    0.79862004352097934468E-01
    0.70994126006194660516E-01
    0.73443412141655575742E-01
    0.45561176906679580478E-01
    0.45081365756174017478E-01
    0.50751072555161973188E-01
    0.49253776811996108353E-01
    0.52819165545436363995E-01
    0.59133141273455064324E-01
    0.53199627727050002868E-01
    0.53236535000105444926E-01
    0.59202276755299571009E-01
    0.87329708930300273262E-01
    0.91136905782227606299E-01
    0.91521962400690673456E-01
    0.47684710315533632152E-01
    0.38873433661829298602E-01
    0.43815740262921808179E-01
    0.28177439033990427097E-01
    0.29528639104795573883E-01
    0.33016842688465566913E-01
    0.32553367273919706082E-01
    0.32898561030331591182E-01
    0.35703155402931639750E-01
    0.36270863445899845234E-01
    0.38571962747862315046E-01
    0.43138199340125679693E-01
    0.48319532746885801577E-01
    0.47226456109791599414E-01
    0.51606658701051841276E-01
    0.64758023012848095479E-01
    0.61009868107095847900E-01
    0.76022565361199681555E-01
    0.66769790702593256881E-01
    0.45915534283652435776E-01
    0.38337268135037065597E-01
    0.39740227794573881881E-01
    0.66088828292379539486E-01
    0.60985407299446216245E-01
    0.32038552821678542570E-01
    0.28890676998772839290E-01
    0.27381867223238421510E-01
    0.42420496966690646179E-01
    0.37087039963681150967E-01
    0.36589954555124981628E-01
    0.50029784115773294484E-01
    0.51895484076084394398E-01
    0.43025607594830976577E-01
    0.58375314510671377777E-01
    0.51199215140855278139E-01
    0.50062295106816950829E-01
    0.36455424975313510672E-01
    0.37054316514252755299E-01
    0.30960363266057382148E-01
    0.65584845296660060354E-01
    0.62006461058006348552E-01
    0.55362149096084271871E-01
    0.29751497160961412614E-01
    0.29156728803258792626E-01
    0.25101810446024927503E-01
    0.28420592495453818327E-01
    0.26283096739613553278E-01
    0.23993408872985209218E-01
    0.59634022613910458999E-01
    0.76499735668009327672E-01
    0.67654465294267135400E-01
    0.64753925057364311590E-01
    0.43961114361967285058E-01
    0.57046095528988732815E-01
    0.50043845499584363457E-01
    0.48804856702141692637E-01
    0.36315086226894208177E-01
    0.45857663463584462382E-01
    0.42863640190334881264E-01
    0.38957228114997438650E-01
    0.69540813206436249971E-01
    0.73367943567748158951E-01
    0.83043671749916767033E-01
    0.57268205092112785259E-01
    0.55259510631810324077E-01
    0.34982131440802421984E-01
    0.37076646649532328526E-01
    0.25636293445010963077E-01
    0.26799820185738384981E-01
    0.48735029377265280670E-01
    0.47076324452876780469E-01
    0.21797827718222660687E-01
    0.22165592781016374424E-01
    0.49552750963185850097E-01
    0.36925910613307993957E-01
    0.36694245475613160301E-01
    0.67701821470008666237E-01
    0.31647404304309845191E-01
    0.48663857474929433922E-01
    0.78427172218924756653E-01
    0.33404015474977885591E-01
    0.66596385446339931291E-01
    0.48393798138679208765E-01
    0.55724766537781439402E-01
    0.45336367323476844948E-01
    0.55868086107834363796E-01
    0.31729703882146853555E-01
    0.33945778158896725007E-01
    0.43713348884087677160E-01
    0.52900798078488783793E-01
    0.61584944787424406032E-01
    0.38771475259272283886E-01
    0.62637192045895628834E-01
    0.53675755230345657820E-01
    0.87605214117239899041E-01
    0.36423244817947682261E-01
    0.30330858841799000769E-01
    0.28813216445713552005E-01
    0.39503400954046988258E-01
    0.38381514461167269558E-01
    0.21814888428852829277E-01
    0.20953153003300258039E-01
    0.17673025338968379599E-01
    0.17947894174097586001E-01
    0.36351308172078641845E-01
    0.43086273320234354245E-01
    0.49506060751893329885E-01
    0.54380087826271628071E-01
    0.54955334834388198939E-01
    0.51967255339107988610E-01
    0.45991518130147762689E-01
    0.41751084038979244251E-01
    0.43611509197477707489E-01
    0.42743534149700959657E-01
    0.39905214679644605835E-01
    0.35496004562326863296E-01
    0.30723855572384391188E-01
    0.25985873380784330761E-01
    0.22786616830905697534E-01
    0.24283169561932813063E-01
    0.24884316534077896566E-01
    0.24799749113557346958E-01
    0.23627206984779072080E-01
    0.22046790972714065682E-01
    0.19879122095623757982E-01
    0.30685089767855087267E-01
    0.31725185645385275968E-01
    0.31226729754137823314E-01
    0.29694736759507057294E-01
    0.27087718943516265330E-01
    0.24099726455759244714E-01
    0.20898837423578522920E-01
