# vtk DataFile Version 3.0
LAPLACIEN  2D
ASCII
DATASET UNSTRUCTURED_GRID
 POINTS         391  float
  0.50371505999999999       0.50367786999999997        0.0000000000000000     
  0.29013556000000001       0.29014535000000002        0.0000000000000000     
  0.70165584999999997       0.71206597999999999        0.0000000000000000     
  0.70304188999999995       0.30176619999999998        0.0000000000000000     
  0.30920671999999999       0.71149227999999998        0.0000000000000000     
  0.79044983999999996       0.49884783999999999        0.0000000000000000     
  0.49102621000000002       0.20968644000000000        0.0000000000000000     
  0.49912957000000002       0.77208717000000004        0.0000000000000000     
  0.21724072999999999       0.48989389000000000        0.0000000000000000     
  0.83255933999999998       0.83046598000000005        0.0000000000000000     
  0.16646774000000000       0.17015694000000001        0.0000000000000000     
  0.83054514999999995       0.16736480000000001        0.0000000000000000     
  0.16953130999999999       0.83265739000000005        0.0000000000000000     
  0.42166445000000002       0.36345201999999999        0.0000000000000000     
  0.64462200999999997       0.56347807999999999        0.0000000000000000     
  0.35324633999999999       0.56311191000000005        0.0000000000000000     
  0.65456411000000003       0.84856860999999995        0.0000000000000000     
  0.35141477999999998       0.15563974000000000        0.0000000000000000     
  0.15290967000000000       0.35206625000000003        0.0000000000000000     
  0.82942241000000005       0.34936866000000000        0.0000000000000000     
  0.84390527000000004       0.64441694999999999        0.0000000000000000     
  0.63699174999999997       0.14284276000000001        0.0000000000000000     
  0.15620682999999999       0.64648446999999998        0.0000000000000000     
  0.36426062999999997       0.85756310999999996        0.0000000000000000     
  0.63489340999999999       0.40519052000000000        0.0000000000000000     
  0.52518872999999999       0.65957078000000002        0.0000000000000000     
  0.32158959999999998       0.42298103999999997        0.0000000000000000     
  0.58861710000000000       0.31711036999999997        0.0000000000000000     
  0.42078418000000001       0.69497151999999995        0.0000000000000000     
  0.48608786999999998       0.89334152000000000        0.0000000000000000     
   9.7084320000000002E-002  0.50000000000000000        0.0000000000000000     
  0.90291568000000000       0.50000000000000000        0.0000000000000000     
  0.51392453000000005       0.10668648999999999        0.0000000000000000     
  0.59792566999999996       0.73122754000000001        0.0000000000000000     
  0.74510058999999995       0.41124730999999998        0.0000000000000000     
  0.73212551999999997       0.90191560000000004        0.0000000000000000     
   9.7784830000000003E-002  0.26957329000000002        0.0000000000000000     
  0.26711221000000002        9.8671499999999995E-002   0.0000000000000000     
  0.90191560000000004       0.26787448000000003        0.0000000000000000     
  0.90118569000000004       0.73039821000000005        0.0000000000000000     
  0.73122947000000005        9.8017859999999998E-002   0.0000000000000000     
   9.8084400000000002E-002  0.73212551999999997        0.0000000000000000     
  0.26957329000000002       0.90221516999999996        0.0000000000000000     
  0.39283522999999998       0.25360379000000000        0.0000000000000000     
  0.74480864000000002       0.60495284999999999        0.0000000000000000     
  0.25505132000000003       0.60593640999999998        0.0000000000000000     
  0.52159297999999998       0.40671636000000000        0.0000000000000000     
  0.40768852000000000       0.47699891000000000        0.0000000000000000     
   9.1467049999999994E-002   9.1876959999999994E-002   0.0000000000000000     
  0.90842484999999995       0.90819225000000003        0.0000000000000000     
  0.90820104999999995        9.1566729999999999E-002   0.0000000000000000     
   9.1807449999999999E-002  0.90843574000000005        0.0000000000000000     
  0.27098960000000000       0.20527094000000001        0.0000000000000000     
  0.73457293999999995       0.79835387000000002        0.0000000000000000     
  0.79817773000000003       0.25713470999999999        0.0000000000000000     
  0.20747797000000001       0.72863946000000002        0.0000000000000000     
  0.20175195000000001       0.27583914999999998        0.0000000000000000     
  0.79603889000000005       0.72159035000000005        0.0000000000000000     
  0.71761666000000002       0.19748431999999999        0.0000000000000000     
  0.28462607000000001       0.80251899999999998        0.0000000000000000     
  0.69134598999999997       0.49261972999999998        0.0000000000000000     
  0.44720578999999999       0.58582935999999997        0.0000000000000000     
  0.24242269999999999       0.37228174000000003        0.0000000000000000     
  0.38265623999999998       0.93072131999999996        0.0000000000000000     
  0.60971754000000000       0.91988369000000003        0.0000000000000000     
   7.9163609999999995E-002  0.60979116000000000        0.0000000000000000     
  0.92010649000000000       0.61081183999999999        0.0000000000000000     
  0.61954008999999999        7.1530830000000004E-002   0.0000000000000000     
  0.91882012999999996       0.38917363999999999        0.0000000000000000     
  0.39086346000000000        8.0652249999999995E-002   0.0000000000000000     
   7.9183480000000001E-002  0.38966213000000000        0.0000000000000000     
  0.59114111999999996       0.49294315000000000        0.0000000000000000     
  0.63337980999999999       0.64485914000000000        0.0000000000000000     
  0.50012352000000004       0.29676539000000002        0.0000000000000000     
  0.82552601000000003       0.92753492000000004        0.0000000000000000     
  0.92774772999999999       0.82498556999999995        0.0000000000000000     
   7.1970870000000006E-002  0.17510291000000000        0.0000000000000000     
  0.17422821999999999        7.2635640000000001E-002   0.0000000000000000     
  0.82510813000000005        7.2134840000000006E-002   0.0000000000000000     
  0.92754665000000003       0.17446275999999999        0.0000000000000000     
  0.17501022999999999       0.92789951999999998        0.0000000000000000     
   7.2464680000000004E-002  0.82554053000000005        0.0000000000000000     
  0.30731587999999999       0.50885354999999999        0.0000000000000000     
  0.59033407999999998       0.22171178999999999        0.0000000000000000     
  0.40109191999999999       0.78725542000000004        0.0000000000000000     
  0.35420917000000002       0.63754104000000000        0.0000000000000000     
  0.15983976999999999       0.56665573000000002        0.0000000000000000     
  0.84108459999999996       0.56757886999999996        0.0000000000000000     
  0.83902096000000004       0.43344338999999998        0.0000000000000000     
  0.43230028999999998       0.16004268999999999        0.0000000000000000     
  0.57536027999999995       0.83041363999999995        0.0000000000000000     
  0.15771898000000001       0.42747892999999998        0.0000000000000000     
  0.34021692999999997       0.34221559000000001        0.0000000000000000     
  0.56002271999999997       0.57501117999999996        0.0000000000000000     
  0.65344329000000001       0.78147597999999996        0.0000000000000000     
   0.0000000000000000        0.0000000000000000        0.0000000000000000     
   1.0000000000000000        0.0000000000000000        0.0000000000000000     
   1.0000000000000000        1.0000000000000000        0.0000000000000000     
   0.0000000000000000        1.0000000000000000        0.0000000000000000     
  0.11111111000000000        0.0000000000000000        0.0000000000000000     
  0.22222222000000000        0.0000000000000000        0.0000000000000000     
  0.33333332999999998        0.0000000000000000        0.0000000000000000     
  0.44444444000000000        0.0000000000000000        0.0000000000000000     
  0.55555555999999995        0.0000000000000000        0.0000000000000000     
  0.66666667000000002        0.0000000000000000        0.0000000000000000     
  0.77777777999999997        0.0000000000000000        0.0000000000000000     
  0.88888889000000004        0.0000000000000000        0.0000000000000000     
   1.0000000000000000       0.11111111000000000        0.0000000000000000     
   1.0000000000000000       0.22222222000000000        0.0000000000000000     
   1.0000000000000000       0.33333332999999998        0.0000000000000000     
   1.0000000000000000       0.44444444000000000        0.0000000000000000     
   1.0000000000000000       0.55555555999999995        0.0000000000000000     
   1.0000000000000000       0.66666667000000002        0.0000000000000000     
   1.0000000000000000       0.77777777999999997        0.0000000000000000     
   1.0000000000000000       0.88888889000000004        0.0000000000000000     
  0.88888889000000004        1.0000000000000000        0.0000000000000000     
  0.77777777999999997        1.0000000000000000        0.0000000000000000     
  0.66666667000000002        1.0000000000000000        0.0000000000000000     
  0.55555555999999995        1.0000000000000000        0.0000000000000000     
  0.44444444000000000        1.0000000000000000        0.0000000000000000     
  0.33333332999999998        1.0000000000000000        0.0000000000000000     
  0.22222222000000000        1.0000000000000000        0.0000000000000000     
  0.11111111000000000        1.0000000000000000        0.0000000000000000     
   0.0000000000000000       0.11111111000000000        0.0000000000000000     
   0.0000000000000000       0.22222222000000000        0.0000000000000000     
[...]
 CELL_DATA         354
 SCALARS V float
 LOOKUP_TABLE default
    0.28643980746355440434E-02
    0.75989294386880901211E-02
    0.21416096791663889742E-02
    0.21396728979074450261E-02
    0.33099407854094496477E-02
    0.37882475426912363622E-02
    0.13853509473572646338E-01
    0.83453193491766688300E-02
    0.15829213200497554287E-01
    0.17477010854510477422E-01
    0.20457861466189455890E-01
    0.19261213854055665717E-01
    0.20698448126813560888E-01
    0.20941148085217124730E-01
    0.20594872040638458055E-01
    0.20982853851326324635E-01
    0.19974559190507994166E-01
    0.18353033634807003338E-01
    0.12511900457250582294E-01
    0.16872334371979103018E-01
    0.10304204273723135271E-01
    0.13015865055735258149E-01
    0.15678511048997166577E-01
    0.14172712616239271921E-01
    0.15935575086060645156E-01
    0.15535305926076908856E-01
    0.11250222379422204419E-01
    0.14504404015186966523E-01
    0.78896812117008538467E-02
    0.57689949958910505604E-02
    0.31576341639810608097E-02
    0.35830424828613908865E-02
    0.29078542336281104283E-02
    0.25753436198870435087E-02
    0.22331126944401830797E-02
    0.23923994210921280951E-02
    0.21836499391031795152E-02
    0.21928222922701213864E-02
    0.23422203649198351273E-02
    0.22353795245954066230E-02
    0.23521976378056150617E-02
    0.23741517557852340019E-02
    0.24176268715579069847E-02
    0.23862828222574851769E-02
    0.24101568133499725460E-02
    0.22595602076779853530E-02
    0.21654504554749695600E-02
    0.21953530140282513650E-02
    0.21355335091654079754E-02
    0.20877501549989591761E-02
    0.20674992523230309449E-02
    0.20340544640599510402E-02
    0.29699123813250872909E-02
    0.29992109048293021795E-02
    0.32389610579388996084E-02
    0.30560360887866904953E-02
    0.32167568745183642773E-02
    0.31344279665079543586E-02
    0.30210048979574209704E-02
    0.30945492082973483777E-02
    0.29118908155415616779E-02
    0.26720185235943908972E-02
    0.23335653261290544361E-02
    0.25267388924826192191E-02
    0.22431986364141601534E-02
    0.21090576934445258786E-02
    0.19678955375035211799E-02
    0.20177193839410237884E-02
    0.20147323752988652301E-01
    0.19289714162253598917E-01
    0.18812052255302150194E-01
    0.19597280148449983117E-01
    0.19260633869324618461E-01
    0.19433203105282126355E-01
    0.17635142438274707677E-01
    0.15913023278395877630E-01
    0.16425240107047135718E-01
    0.18354981428696307000E-01
    0.11895425955208770857E-01
    0.14358571051966834142E-01
    0.50008706258863958038E-02
    0.96893176843721312563E-02
    0.14578999269815477724E-01
    0.68839046370028338789E-02
    0.19664775038345690128E-01
    0.19386969329660237032E-01
    0.16623011937944874583E-01
    0.19885415635209378188E-01
    0.19814172132166088525E-01
    0.20460351306992630854E-01
    0.18590374134289287811E-01
    0.73470036797184633259E-02
    0.67140891609254261044E-02
    0.38113398242242144467E-02
    0.36223293189988170319E-02
    0.40428908537061712322E-02
    0.96255997043636284949E-02
    0.15590464614507677441E-01
    0.19233283030324267726E-01
    0.16878740137433026480E-01
    0.18622499368270310771E-01
    0.15633500748797130031E-01
    0.17509079769163174434E-01
    0.20638008251787638703E-01
    0.20730225216868437832E-01
    0.20499682527710262614E-01
    0.20520547246192302748E-01
    0.20526128817628379319E-01
    0.12400982339490055489E-01
    0.91753654259468468007E-02
    0.37567275695175018045E-02
    0.88774404673434767488E-02
    0.44098187146231065947E-02
    0.42356588044822418918E-02
    0.16046535919154024386E-01
    0.60120980651982699680E-02
    0.11827697064927731457E-01
    0.16022098524091029498E-01
    0.15245185929782176237E-01
    0.64721913899818276153E-02
    0.12167047027525149105E-01
    0.28495839566448507262E-02
    0.32567564564941562516E-02
    0.26253756117380084439E-02
    0.34650730530300707238E-02
    0.37487222116482938478E-02
    0.26117012604880869564E-02
    0.27990649370215649194E-02
    0.74791723465608877033E-02
    0.13960666597460900246E-01
    0.44622671417890247617E-02
    0.14822583401978384893E-01
    0.12580405996104028488E-01
    0.40908159771299509866E-02
    0.91442085415198801762E-02
    0.17393445743605413789E-01
    0.19185914444944069529E-01
    0.16768254845338184666E-01
    0.18756774541568564663E-01
    0.19494994773819083328E-01
    0.17859762855231636758E-01
    0.16434875996408866705E-01
    0.24423903836724479913E-02
    0.23432057140818180960E-02
    0.21368096326389424654E-02
    0.27928628606627464888E-02
    0.26983413294144253589E-02
    0.21678552881036709105E-02
    0.22052496898481346171E-02
    0.19234967502483660967E-01
    0.19852722895599736463E-01
    0.20520657993186655621E-01
    0.19480219469534817284E-01
    0.21026206231339748115E-01
    0.19466068043556890299E-01
    0.16778801758922635978E-01
    0.18690787945432399408E-01
    0.19610208320638637669E-01
    0.16611404517548323395E-01
    0.18497264117992739951E-01
    0.14584287845873036144E-01
    0.17964385420934651100E-01
    0.17001572793719648552E-01
    0.15893427644590764347E-01
    0.15740293184602814625E-01
    0.31439624344489726024E-02
    0.37401782639461603197E-02
    0.31638394267936901204E-02
    0.35952775410058547198E-02
    0.39152628302870726845E-02
    0.16541980915218836012E-01
    0.19549782856004456477E-01
    0.17833753949686614870E-01
    0.17864138943956886507E-01
    0.19309948219004613446E-01
    0.79297728959659263132E-02
    0.13253392780315464278E-01
    0.15065707481679836005E-01
    0.57388679603339789320E-02
    0.11235129099569781189E-01
    0.19120823981788472035E-01
    0.17194452952419586600E-01
    0.18588874177427057444E-01
    0.16689970252138228851E-01
    0.18041734869614724224E-01
    0.47782741566240972617E-02
    0.14228309706320749900E-01
    0.93223935546153068044E-02
    0.87497621686903077204E-02
    0.13584890152357496917E-01
    0.20399600339744292099E-01
    0.20418517984282520683E-01
    0.19924330382404358691E-01
    0.20625865687436878426E-01
    0.21088953518247209595E-01
    0.30740399699076036491E-02
    0.41047431734983885060E-02
    0.33745783443978908875E-02
    0.33380476582325130028E-02
    0.38332276292166620954E-02
    0.28021299226690101966E-02
    0.26570237714802769080E-02
    0.29516358054002046242E-02
    0.26051145737210046859E-02
    0.31448351453031873556E-02
    0.18566772427618435937E-01
    0.20145285708758856047E-01
    0.19746964226216578986E-01
    0.20115818960491159417E-01
    0.20291458432785458577E-01
    0.14141577629522632600E-01
    0.13756011636951221214E-01
    0.15945393002463718879E-01
    0.15168873342614302632E-01
    0.16429121908686339371E-01
    0.18562408469324317983E-01
    0.16402023612461028024E-01
    0.16628504096361101938E-01
    0.18250474132439360730E-01
    0.17533103455380137647E-01
    0.15164904134276697284E-01
    0.14567946735619782123E-01
    0.15793814742561751441E-01
    0.48372249910150419416E-02
    0.13441906697442246310E-01
    0.25686483909846541396E-02
    0.27716939558890662382E-02
    0.33372792957366273145E-02
    0.33325741727344882111E-02
    0.33028267757596956565E-02
    0.36990785882331164713E-02
    0.39296572744040650371E-02
    0.57875555769598329911E-02
    0.10270168425795943301E-01
    0.14301110337746386972E-01
    0.13766064126444311350E-01
    0.15330482869245334876E-01
    0.20570550638342573191E-01
    0.20245708165415335356E-01
    0.21356647721499588677E-01
    0.20089703701195400776E-01
    0.14570142697039953003E-01
    0.46767107763812888407E-02
    0.68550251847812456937E-02
    0.19363943036362768479E-01
    0.19154188095565117395E-01
    0.32820156295603288878E-02
    0.27239128082670034485E-02
    0.25044772192498020863E-02
    0.10564582255900723667E-01
    0.39294741358610303997E-02
    0.37003342211450918238E-02
    0.15454459703320126349E-01
    0.16656240633388240402E-01
    0.12604589251647039388E-01
    0.18067958487637612863E-01
    0.16105296974653356135E-01
    0.16033016188824890380E-01
    0.42093147082087143535E-02
    0.41844779850965596948E-02
    0.29732346404366168796E-02
    0.19813891197972766794E-01
    0.20754044490276395141E-01
    0.19259808344246155676E-01
    0.28975747542011108353E-02
    0.27907130606662430838E-02
    0.22727630271759174593E-02
    0.26857201300015142754E-02
    0.23991636327295785304E-02
    0.21583946078851641917E-02
    0.19401639647698094848E-01
    0.21153537149029941200E-01
    0.19861184994205135362E-01
    0.19536536187107704510E-01
    0.13297193253466951107E-01
    0.17848096602369495356E-01
    0.15148318853851941435E-01
    0.15223428792051341835E-01
    0.40312536278704989151E-02
    0.14538025435421559478E-01
    0.12341796739076264094E-01
    0.62624872186871263086E-02
    0.20242998071989027481E-01
    0.20136768684726177869E-01
    0.19077444489300151437E-01
    0.18498938705204564376E-01
    0.17887006166224336812E-01
    0.35112739029687684185E-02
    0.42642906683406350127E-02
    0.23607515295709195768E-02
    0.25006891757739370223E-02
    0.16598243209189064012E-01
    0.14898242619150719318E-01
    0.19862805326796130825E-02
    0.20153505275285190854E-02
    0.15115058333756776349E-01
    0.45534478468336426690E-02
    0.43058147885826209000E-02
    0.19454000861379827647E-01
    0.31783993327803689542E-02
    0.15232096281403992646E-01
    0.21058255114692264048E-01
    0.33333491292972224421E-02
    0.19513503669632475956E-01
    0.16402158266325597008E-01
    0.17780475923845968922E-01
    0.15325032963105916783E-01
    0.17359523035371041133E-01
    0.32337779455835638856E-02
    0.35990742543662965387E-02
    0.12332479777991151026E-01
    0.15858554993180878218E-01
    0.19574683965334335745E-01
    0.55620419034924451288E-02
    0.19744399291971369975E-01
    0.16660563608522496043E-01
    0.16626289726647851958E-01
    0.41248869930397202496E-02
    0.28372243156502656436E-02
    0.25262017649304384891E-02
    0.61598749050964813484E-02
    0.51900076858130824928E-02
    0.21015579784394180195E-02
    0.20593143160860570909E-02
    0.21860746912934696067E-02
    0.20731489274570932477E-02
    0.36906395726714873867E-02
    0.95669504050428892661E-02
    0.10959347583521805020E-01
    0.12203583916701829515E-01
    0.12572295536086188286E-01
    0.12056738363808255227E-01
    0.10819728759454059347E-01
    0.85434259894562533666E-02
    0.10128601273477713662E-01
    0.96798567354269750979E-02
    0.61653209813640301451E-02
    0.32664631911310066867E-02
    0.27516068681819761538E-02
    0.23715144133053542644E-02
    0.20906926327205694119E-02
    0.21351542091208389196E-02
    0.21611347804498179381E-02
    0.21589397534593642546E-02
    0.21043360600141104884E-02
    0.20571328094056619967E-02
    0.20902577000288581101E-02
    0.26829434761849123812E-02
    0.27530088473707668012E-02
    0.27008732412397173407E-02
    0.25701829658432307629E-02
    0.23534156074465702353E-02
    0.21505878126902764312E-02
    0.20580943864268491823E-02
