# vtk DataFile Version 3.0
LAPLACIEN  2D
ASCII
DATASET UNSTRUCTURED_GRID
 POINTS         391  float
  0.50371505999999999       0.50367786999999997        0.0000000000000000     
  0.29013556000000001       0.29014535000000002        0.0000000000000000     
  0.70165584999999997       0.71206597999999999        0.0000000000000000     
  0.70304188999999995       0.30176619999999998        0.0000000000000000     
  0.30920671999999999       0.71149227999999998        0.0000000000000000     
  0.79044983999999996       0.49884783999999999        0.0000000000000000     
  0.49102621000000002       0.20968644000000000        0.0000000000000000     
  0.49912957000000002       0.77208717000000004        0.0000000000000000     
  0.21724072999999999       0.48989389000000000        0.0000000000000000     
  0.83255933999999998       0.83046598000000005        0.0000000000000000     
  0.16646774000000000       0.17015694000000001        0.0000000000000000     
  0.83054514999999995       0.16736480000000001        0.0000000000000000     
  0.16953130999999999       0.83265739000000005        0.0000000000000000     
  0.42166445000000002       0.36345201999999999        0.0000000000000000     
  0.64462200999999997       0.56347807999999999        0.0000000000000000     
  0.35324633999999999       0.56311191000000005        0.0000000000000000     
  0.65456411000000003       0.84856860999999995        0.0000000000000000     
  0.35141477999999998       0.15563974000000000        0.0000000000000000     
  0.15290967000000000       0.35206625000000003        0.0000000000000000     
  0.82942241000000005       0.34936866000000000        0.0000000000000000     
  0.84390527000000004       0.64441694999999999        0.0000000000000000     
  0.63699174999999997       0.14284276000000001        0.0000000000000000     
  0.15620682999999999       0.64648446999999998        0.0000000000000000     
  0.36426062999999997       0.85756310999999996        0.0000000000000000     
  0.63489340999999999       0.40519052000000000        0.0000000000000000     
  0.52518872999999999       0.65957078000000002        0.0000000000000000     
  0.32158959999999998       0.42298103999999997        0.0000000000000000     
  0.58861710000000000       0.31711036999999997        0.0000000000000000     
  0.42078418000000001       0.69497151999999995        0.0000000000000000     
  0.48608786999999998       0.89334152000000000        0.0000000000000000     
   9.7084320000000002E-002  0.50000000000000000        0.0000000000000000     
  0.90291568000000000       0.50000000000000000        0.0000000000000000     
  0.51392453000000005       0.10668648999999999        0.0000000000000000     
  0.59792566999999996       0.73122754000000001        0.0000000000000000     
  0.74510058999999995       0.41124730999999998        0.0000000000000000     
  0.73212551999999997       0.90191560000000004        0.0000000000000000     
   9.7784830000000003E-002  0.26957329000000002        0.0000000000000000     
  0.26711221000000002        9.8671499999999995E-002   0.0000000000000000     
  0.90191560000000004       0.26787448000000003        0.0000000000000000     
  0.90118569000000004       0.73039821000000005        0.0000000000000000     
  0.73122947000000005        9.8017859999999998E-002   0.0000000000000000     
   9.8084400000000002E-002  0.73212551999999997        0.0000000000000000     
  0.26957329000000002       0.90221516999999996        0.0000000000000000     
  0.39283522999999998       0.25360379000000000        0.0000000000000000     
  0.74480864000000002       0.60495284999999999        0.0000000000000000     
  0.25505132000000003       0.60593640999999998        0.0000000000000000     
  0.52159297999999998       0.40671636000000000        0.0000000000000000     
  0.40768852000000000       0.47699891000000000        0.0000000000000000     
   9.1467049999999994E-002   9.1876959999999994E-002   0.0000000000000000     
  0.90842484999999995       0.90819225000000003        0.0000000000000000     
  0.90820104999999995        9.1566729999999999E-002   0.0000000000000000     
   9.1807449999999999E-002  0.90843574000000005        0.0000000000000000     
  0.27098960000000000       0.20527094000000001        0.0000000000000000     
  0.73457293999999995       0.79835387000000002        0.0000000000000000     
  0.79817773000000003       0.25713470999999999        0.0000000000000000     
  0.20747797000000001       0.72863946000000002        0.0000000000000000     
  0.20175195000000001       0.27583914999999998        0.0000000000000000     
  0.79603889000000005       0.72159035000000005        0.0000000000000000     
  0.71761666000000002       0.19748431999999999        0.0000000000000000     
  0.28462607000000001       0.80251899999999998        0.0000000000000000     
  0.69134598999999997       0.49261972999999998        0.0000000000000000     
  0.44720578999999999       0.58582935999999997        0.0000000000000000     
  0.24242269999999999       0.37228174000000003        0.0000000000000000     
  0.38265623999999998       0.93072131999999996        0.0000000000000000     
  0.60971754000000000       0.91988369000000003        0.0000000000000000     
   7.9163609999999995E-002  0.60979116000000000        0.0000000000000000     
  0.92010649000000000       0.61081183999999999        0.0000000000000000     
  0.61954008999999999        7.1530830000000004E-002   0.0000000000000000     
  0.91882012999999996       0.38917363999999999        0.0000000000000000     
  0.39086346000000000        8.0652249999999995E-002   0.0000000000000000     
   7.9183480000000001E-002  0.38966213000000000        0.0000000000000000     
  0.59114111999999996       0.49294315000000000        0.0000000000000000     
  0.63337980999999999       0.64485914000000000        0.0000000000000000     
  0.50012352000000004       0.29676539000000002        0.0000000000000000     
  0.82552601000000003       0.92753492000000004        0.0000000000000000     
  0.92774772999999999       0.82498556999999995        0.0000000000000000     
   7.1970870000000006E-002  0.17510291000000000        0.0000000000000000     
  0.17422821999999999        7.2635640000000001E-002   0.0000000000000000     
  0.82510813000000005        7.2134840000000006E-002   0.0000000000000000     
  0.92754665000000003       0.17446275999999999        0.0000000000000000     
  0.17501022999999999       0.92789951999999998        0.0000000000000000     
   7.2464680000000004E-002  0.82554053000000005        0.0000000000000000     
  0.30731587999999999       0.50885354999999999        0.0000000000000000     
  0.59033407999999998       0.22171178999999999        0.0000000000000000     
  0.40109191999999999       0.78725542000000004        0.0000000000000000     
  0.35420917000000002       0.63754104000000000        0.0000000000000000     
  0.15983976999999999       0.56665573000000002        0.0000000000000000     
  0.84108459999999996       0.56757886999999996        0.0000000000000000     
  0.83902096000000004       0.43344338999999998        0.0000000000000000     
  0.43230028999999998       0.16004268999999999        0.0000000000000000     
  0.57536027999999995       0.83041363999999995        0.0000000000000000     
  0.15771898000000001       0.42747892999999998        0.0000000000000000     
  0.34021692999999997       0.34221559000000001        0.0000000000000000     
  0.56002271999999997       0.57501117999999996        0.0000000000000000     
  0.65344329000000001       0.78147597999999996        0.0000000000000000     
   0.0000000000000000        0.0000000000000000        0.0000000000000000     
   1.0000000000000000        0.0000000000000000        0.0000000000000000     
   1.0000000000000000        1.0000000000000000        0.0000000000000000     
   0.0000000000000000        1.0000000000000000        0.0000000000000000     
  0.11111111000000000        0.0000000000000000        0.0000000000000000     
  0.22222222000000000        0.0000000000000000        0.0000000000000000     
  0.33333332999999998        0.0000000000000000        0.0000000000000000     
  0.44444444000000000        0.0000000000000000        0.0000000000000000     
  0.55555555999999995        0.0000000000000000        0.0000000000000000     
  0.66666667000000002        0.0000000000000000        0.0000000000000000     
  0.77777777999999997        0.0000000000000000        0.0000000000000000     
  0.88888889000000004        0.0000000000000000        0.0000000000000000     
   1.0000000000000000       0.11111111000000000        0.0000000000000000     
   1.0000000000000000       0.22222222000000000        0.0000000000000000     
   1.0000000000000000       0.33333332999999998        0.0000000000000000     
   1.0000000000000000       0.44444444000000000        0.0000000000000000     
   1.0000000000000000       0.55555555999999995        0.0000000000000000     
   1.0000000000000000       0.66666667000000002        0.0000000000000000     
   1.0000000000000000       0.77777777999999997        0.0000000000000000     
   1.0000000000000000       0.88888889000000004        0.0000000000000000     
  0.88888889000000004        1.0000000000000000        0.0000000000000000     
  0.77777777999999997        1.0000000000000000        0.0000000000000000     
  0.66666667000000002        1.0000000000000000        0.0000000000000000     
  0.55555555999999995        1.0000000000000000        0.0000000000000000     
  0.44444444000000000        1.0000000000000000        0.0000000000000000     
  0.33333332999999998        1.0000000000000000        0.0000000000000000     
  0.22222222000000000        1.0000000000000000        0.0000000000000000     
  0.11111111000000000        1.0000000000000000        0.0000000000000000     
   0.0000000000000000       0.11111111000000000        0.0000000000000000     
   0.0000000000000000       0.22222222000000000        0.0000000000000000     
[...]
 CELL_DATA         354
 SCALARS V float
 LOOKUP_TABLE default
    0.30852348918629125818E-01
    0.40783082404696247014E-01
    0.22327206659529100219E-01
    0.18623147703986896173E-01
    0.33611085393452186376E-01
    0.36268639821246381749E-01
    0.43315175757902474318E-01
    0.39491294277460210760E-01
    0.46981081392738037461E-01
    0.50855958559810336694E-01
    0.58525821121705068339E-01
    0.54338847412351433397E-01
    0.60167069593749650247E-01
    0.59182079805668932893E-01
    0.56937450989084668895E-01
    0.58293866082114634275E-01
    0.54234640928193578180E-01
    0.50199778356543489632E-01
    0.43971094203008910528E-01
    0.46852036543409844582E-01
    0.42663091303477812533E-01
    0.43881508974880120699E-01
    0.47125479375183479402E-01
    0.45332086947786551234E-01
    0.47491817705315138298E-01
    0.46473105834513681045E-01
    0.43925316584815611576E-01
    0.45355230215763861490E-01
    0.41821321078476025868E-01
    0.38795080552426468301E-01
    0.33564918852085443013E-01
    0.36223755806146978875E-01
    0.30995897654815536548E-01
    0.28283197494043395975E-01
    0.24229927050033732427E-01
    0.26042522204181611095E-01
    0.23246059244792963150E-01
    0.23874471895941565269E-01
    0.25943975880358464275E-01
    0.24751976896538099154E-01
    0.26558377563207648253E-01
    0.26677598885011640645E-01
    0.27201565477729554299E-01
    0.26853978802082841687E-01
    0.26794756536340919029E-01
    0.25510458058998212311E-01
    0.24146789686234185895E-01
    0.24719413252327512159E-01
    0.23136217372295077299E-01
    0.21675474672016466909E-01
    0.19678319131314955109E-01
    0.20544903509447511730E-01
    0.31869624047766012542E-01
    0.32402918781726033903E-01
    0.34301089997010876520E-01
    0.33191906705259913157E-01
    0.34493864936598089832E-01
    0.33808243175340785269E-01
    0.32618350278402506726E-01
    0.33221279760245428503E-01
    0.31449964539575242517E-01
    0.29592893784557577214E-01
    0.26407343311990023882E-01
    0.28030317336768799386E-01
    0.24717635912109837265E-01
    0.22792453109749560847E-01
    0.19991398065794665356E-01
    0.21232742336961252932E-01
    0.70507145096277784591E-01
    0.63446526257790486492E-01
    0.59158461926913846751E-01
    0.66782794947779014483E-01
    0.61187185277132502548E-01
    0.61160590606225237464E-01
    0.54716497452039832006E-01
    0.51450541764215380891E-01
    0.53274483459580745937E-01
    0.58824287925791238218E-01
    0.42557837589262674516E-01
    0.45878662919394866404E-01
    0.38695213063328619263E-01
    0.40884897140328835263E-01
    0.46120777806738691429E-01
    0.39849348161015249459E-01
    0.68635260345332488319E-01
    0.79857733736633740307E-01
    0.87689145297505960430E-01
    0.72591948816047968673E-01
    0.70347191994124702585E-01
    0.75330455351770783667E-01
    0.83582750131468278032E-01
    0.40016488525679891342E-01
    0.39020140629722206704E-01
    0.34945389396424116069E-01
    0.34191792598250517199E-01
    0.36502775337623472041E-01
    0.41060888240767555446E-01
    0.51458622953972341096E-01
    0.61398561469052211070E-01
    0.53533836541090409900E-01
    0.59898768637534717529E-01
    0.51206600409854835521E-01
    0.56119389635139835248E-01
    0.72961372979975708253E-01
    0.73611548556065040105E-01
    0.81470103355355011354E-01
    0.81418717923446626283E-01
    0.71551022306069508860E-01
    0.43184621525239996753E-01
    0.40757006982406446260E-01
    0.34327474677664213121E-01
    0.40472604978809056941E-01
    0.36807959419439865989E-01
    0.36418534818667004649E-01
    0.50220272625315198756E-01
    0.39506994072856106703E-01
    0.42760594012118027796E-01
    0.47432076222918465036E-01
    0.47438527086440251956E-01
    0.40125630354930628962E-01
    0.42724423927812449353E-01
    0.30021136655439185914E-01
    0.32703327690771180625E-01
    0.27827279017445947368E-01
    0.33173390710506837908E-01
    0.34789431763087450000E-01
    0.28187108028554876127E-01
    0.29628964290137563969E-01
    0.40237709506106930646E-01
    0.45012343314507791137E-01
    0.38115416979467256486E-01
    0.47236802457482754414E-01
    0.44600178909222042145E-01
    0.38203854909251155902E-01
    0.40813668346465534209E-01
    0.54908295278753904700E-01
    0.59128303211772342829E-01
    0.51015295264219454041E-01
    0.60727083900813161321E-01
    0.63679616525868010246E-01
    0.53925611726742650465E-01
    0.51783683467864813355E-01
    0.26890846368002565420E-01
    0.26080195816705752099E-01
    0.23386232738316435620E-01
    0.29111825813041974920E-01
    0.28662861641999746315E-01
    0.24100980112561183610E-01
    0.24552364397148133957E-01
    0.63365480874330110117E-01
    0.70487169549966907645E-01
    0.74956765891360813137E-01
    0.66445565420281363367E-01
    0.77826939916998474911E-01
    0.65753677217038397629E-01
    0.54583564746371431020E-01
    0.60826241184494894698E-01
    0.62782992706147913720E-01
    0.54010592451156400062E-01
    0.58086864290332843042E-01
    0.45737542928405316989E-01
    0.54869472219827068737E-01
    0.51825853779591535275E-01
    0.50213394635075743466E-01
    0.47166659969972532518E-01
    0.31159591709778666768E-01
    0.34004408856487658430E-01
    0.31112179134816057846E-01
    0.33750385480725342280E-01
    0.35343121491652494670E-01
    0.53143310046751830733E-01
    0.62604059154537872178E-01
    0.55731353831691969603E-01
    0.57160880696947212465E-01
    0.62463083020907507470E-01
    0.40417071568161530570E-01
    0.44519685393082701619E-01
    0.45876509616935387537E-01
    0.39330317727551203366E-01
    0.42038509798190154543E-01
    0.64333011335978268486E-01
    0.56459707665874554749E-01
    0.62686773191837963370E-01
    0.54823959311416030349E-01
    0.58123505508231657068E-01
    0.38268939641344375258E-01
    0.45493949848158223015E-01
    0.40627877804715800680E-01
    0.40861345951923012942E-01
    0.44724833131818228504E-01
    0.70280244072954231593E-01
    0.66347160875494748389E-01
    0.71860017906786227693E-01
    0.66946546227418052277E-01
    0.77234329939302001633E-01
    0.30595842194326462737E-01
    0.36733475697642598012E-01
    0.32988009113063099242E-01
    0.32129414000566146326E-01
    0.35310897157397443114E-01
    0.30352171520519097281E-01
    0.28172236749695461766E-01
    0.30697180720382404029E-01
    0.28400459147201059795E-01
    0.32494301726333385538E-01
    0.86763178277960373297E-01
    0.73172797229124661444E-01
    0.79861817533096401966E-01
    0.70994063587144023986E-01
    0.73443360846076541359E-01
    0.45561155613130982500E-01
    0.45081384562673951222E-01
    0.50751076765304159455E-01
    0.49253759878493806601E-01
    0.52819144848475406417E-01
    0.59133170090138444108E-01
    0.53199529596134845222E-01
    0.53236521611511752883E-01
    0.59202228059675267302E-01
    0.87329158890830926865E-01
    0.91136042001216388542E-01
    0.91520930362712360484E-01
    0.47684723039220347496E-01
    0.38873437476744585051E-01
    0.43815727122381631364E-01
    0.28177514169849572634E-01
    0.29528623120792286266E-01
    0.33016797278149524753E-01
    0.32553319534303390426E-01
    0.32898543160746078484E-01
    0.35703118031715629088E-01
    0.36270861793596329004E-01
    0.38571873250895380436E-01
    0.43138173149902155068E-01
    0.48319475462647372421E-01
    0.47226446696463260377E-01
    0.51606523174229805562E-01
    0.64758137352592573532E-01
    0.61009799080718296604E-01
    0.76022285630364741515E-01
    0.66769677171457680886E-01
    0.45915527977528153292E-01
    0.38337269496966981663E-01
    0.39740280267624335242E-01
    0.66088802150691752790E-01
    0.60985475813765954722E-01
    0.32038517575020609984E-01
    0.28890631080708020079E-01
    0.27381921820817271829E-01
    0.42420460184341562959E-01
    0.37087004317409494325E-01
    0.36590010210312502725E-01
    0.50029717222373280838E-01
    0.51895366758335274848E-01
    0.43025690817148506961E-01
    0.58375185783904742776E-01
    0.51199194592320855512E-01
    0.50062375615202450718E-01
    0.36455382867980126727E-01
    0.37054246561591369646E-01
    0.30960432637255438926E-01
    0.65584733736608322174E-01
    0.62006355592565690071E-01
    0.55362246007955848159E-01
    0.29751468938677808757E-01
    0.29156683335195381079E-01
    0.25101868864018408306E-01
    0.28420578580633685389E-01
    0.26283074136819559175E-01
    0.23993462788129023971E-01
    0.59634053237508928558E-01
    0.76499491795915933179E-01
    0.67654458974579154140E-01
    0.64753984004418757570E-01
    0.43961158400374795996E-01
    0.57045982293024405374E-01
    0.50043814378259013353E-01
    0.48804911792966247652E-01
    0.36315121538646397137E-01
    0.45857526336679943491E-01
    0.42863575378945362182E-01
    0.38957294049752670684E-01
    0.69540734147922361741E-01
    0.73367954047779015969E-01
    0.83043335469491247336E-01
    0.57268193497554166493E-01
    0.55259569181959102002E-01
    0.34982140016371766900E-01
    0.37076646236547022850E-01
    0.25636302826090084928E-01
    0.26799820914534699945E-01
    0.48735013624798539933E-01
    0.47076322845706244924E-01
    0.21797833714504666336E-01
    0.22165598221418208319E-01
    0.49552686979711713100E-01
    0.36925893788638329551E-01
    0.36694218837197756233E-01
    0.67701756798060230835E-01
    0.31647384133217937308E-01
    0.48663859819422221331E-01
    0.78427215317020779195E-01
    0.33404068535929289097E-01
    0.66596376035119225767E-01
    0.48393833755892290416E-01
    0.55724713350500477971E-01
    0.45336478473307198489E-01
    0.55868007020159704545E-01
    0.31729652588353036979E-01
    0.33945742526656261240E-01
    0.43713303940007976200E-01
    0.52900707140608189960E-01
    0.61584823619643042081E-01
    0.38771412399693991335E-01
    0.62637157251015693205E-01
    0.53675672463767636067E-01
    0.87604759477646704235E-01
    0.36423248106970840254E-01
    0.30330907307005751383E-01
    0.28813349886394258592E-01
    0.39503495239928618221E-01
    0.38381670503216419599E-01
    0.21814931537755072322E-01
    0.20953244933673263045E-01
    0.17673091505908615495E-01
    0.17947944841539498206E-01
    0.36351388753453187097E-01
    0.43086451407561239535E-01
    0.49506265302505500503E-01
    0.54380328032661476301E-01
    0.54955601638647752494E-01
    0.51967499394535529578E-01
    0.45991659285116670564E-01
    0.41751263347004269333E-01
    0.43611729434414304996E-01
    0.42743744894485666275E-01
    0.39905397795444608189E-01
    0.35496151004063045131E-01
    0.30723981688855470096E-01
    0.25985936577376637230E-01
    0.22786716502904872522E-01
    0.24283299253765818632E-01
    0.24884449625275174844E-01
    0.24799887161495167559E-01
    0.23627328421129498853E-01
    0.22046903903734434149E-01
    0.19879199220163151773E-01
    0.30685230233064172967E-01
    0.31725350749230121772E-01
    0.31226889704352299437E-01
    0.29694883052584566951E-01
    0.27087843282876441359E-01
    0.24099840617590927161E-01
    0.20898903229973252171E-01
