# vtk DataFile Version 3.0
LAPLACIEN  2D
ASCII
DATASET UNSTRUCTURED_GRID
 POINTS         391  float
  0.50371505999999999       0.50367786999999997        0.0000000000000000     
  0.29013556000000001       0.29014535000000002        0.0000000000000000     
  0.70165584999999997       0.71206597999999999        0.0000000000000000     
  0.70304188999999995       0.30176619999999998        0.0000000000000000     
  0.30920671999999999       0.71149227999999998        0.0000000000000000     
  0.79044983999999996       0.49884783999999999        0.0000000000000000     
  0.49102621000000002       0.20968644000000000        0.0000000000000000     
  0.49912957000000002       0.77208717000000004        0.0000000000000000     
  0.21724072999999999       0.48989389000000000        0.0000000000000000     
  0.83255933999999998       0.83046598000000005        0.0000000000000000     
  0.16646774000000000       0.17015694000000001        0.0000000000000000     
  0.83054514999999995       0.16736480000000001        0.0000000000000000     
  0.16953130999999999       0.83265739000000005        0.0000000000000000     
  0.42166445000000002       0.36345201999999999        0.0000000000000000     
  0.64462200999999997       0.56347807999999999        0.0000000000000000     
  0.35324633999999999       0.56311191000000005        0.0000000000000000     
  0.65456411000000003       0.84856860999999995        0.0000000000000000     
  0.35141477999999998       0.15563974000000000        0.0000000000000000     
  0.15290967000000000       0.35206625000000003        0.0000000000000000     
  0.82942241000000005       0.34936866000000000        0.0000000000000000     
  0.84390527000000004       0.64441694999999999        0.0000000000000000     
  0.63699174999999997       0.14284276000000001        0.0000000000000000     
  0.15620682999999999       0.64648446999999998        0.0000000000000000     
  0.36426062999999997       0.85756310999999996        0.0000000000000000     
  0.63489340999999999       0.40519052000000000        0.0000000000000000     
  0.52518872999999999       0.65957078000000002        0.0000000000000000     
  0.32158959999999998       0.42298103999999997        0.0000000000000000     
  0.58861710000000000       0.31711036999999997        0.0000000000000000     
  0.42078418000000001       0.69497151999999995        0.0000000000000000     
  0.48608786999999998       0.89334152000000000        0.0000000000000000     
   9.7084320000000002E-002  0.50000000000000000        0.0000000000000000     
  0.90291568000000000       0.50000000000000000        0.0000000000000000     
  0.51392453000000005       0.10668648999999999        0.0000000000000000     
  0.59792566999999996       0.73122754000000001        0.0000000000000000     
  0.74510058999999995       0.41124730999999998        0.0000000000000000     
  0.73212551999999997       0.90191560000000004        0.0000000000000000     
   9.7784830000000003E-002  0.26957329000000002        0.0000000000000000     
  0.26711221000000002        9.8671499999999995E-002   0.0000000000000000     
  0.90191560000000004       0.26787448000000003        0.0000000000000000     
  0.90118569000000004       0.73039821000000005        0.0000000000000000     
  0.73122947000000005        9.8017859999999998E-002   0.0000000000000000     
   9.8084400000000002E-002  0.73212551999999997        0.0000000000000000     
  0.26957329000000002       0.90221516999999996        0.0000000000000000     
  0.39283522999999998       0.25360379000000000        0.0000000000000000     
  0.74480864000000002       0.60495284999999999        0.0000000000000000     
  0.25505132000000003       0.60593640999999998        0.0000000000000000     
  0.52159297999999998       0.40671636000000000        0.0000000000000000     
  0.40768852000000000       0.47699891000000000        0.0000000000000000     
   9.1467049999999994E-002   9.1876959999999994E-002   0.0000000000000000     
  0.90842484999999995       0.90819225000000003        0.0000000000000000     
  0.90820104999999995        9.1566729999999999E-002   0.0000000000000000     
   9.1807449999999999E-002  0.90843574000000005        0.0000000000000000     
  0.27098960000000000       0.20527094000000001        0.0000000000000000     
  0.73457293999999995       0.79835387000000002        0.0000000000000000     
  0.79817773000000003       0.25713470999999999        0.0000000000000000     
  0.20747797000000001       0.72863946000000002        0.0000000000000000     
  0.20175195000000001       0.27583914999999998        0.0000000000000000     
  0.79603889000000005       0.72159035000000005        0.0000000000000000     
  0.71761666000000002       0.19748431999999999        0.0000000000000000     
  0.28462607000000001       0.80251899999999998        0.0000000000000000     
  0.69134598999999997       0.49261972999999998        0.0000000000000000     
  0.44720578999999999       0.58582935999999997        0.0000000000000000     
  0.24242269999999999       0.37228174000000003        0.0000000000000000     
  0.38265623999999998       0.93072131999999996        0.0000000000000000     
  0.60971754000000000       0.91988369000000003        0.0000000000000000     
   7.9163609999999995E-002  0.60979116000000000        0.0000000000000000     
  0.92010649000000000       0.61081183999999999        0.0000000000000000     
  0.61954008999999999        7.1530830000000004E-002   0.0000000000000000     
  0.91882012999999996       0.38917363999999999        0.0000000000000000     
  0.39086346000000000        8.0652249999999995E-002   0.0000000000000000     
   7.9183480000000001E-002  0.38966213000000000        0.0000000000000000     
  0.59114111999999996       0.49294315000000000        0.0000000000000000     
  0.63337980999999999       0.64485914000000000        0.0000000000000000     
  0.50012352000000004       0.29676539000000002        0.0000000000000000     
  0.82552601000000003       0.92753492000000004        0.0000000000000000     
  0.92774772999999999       0.82498556999999995        0.0000000000000000     
   7.1970870000000006E-002  0.17510291000000000        0.0000000000000000     
  0.17422821999999999        7.2635640000000001E-002   0.0000000000000000     
  0.82510813000000005        7.2134840000000006E-002   0.0000000000000000     
  0.92754665000000003       0.17446275999999999        0.0000000000000000     
  0.17501022999999999       0.92789951999999998        0.0000000000000000     
   7.2464680000000004E-002  0.82554053000000005        0.0000000000000000     
  0.30731587999999999       0.50885354999999999        0.0000000000000000     
  0.59033407999999998       0.22171178999999999        0.0000000000000000     
  0.40109191999999999       0.78725542000000004        0.0000000000000000     
  0.35420917000000002       0.63754104000000000        0.0000000000000000     
  0.15983976999999999       0.56665573000000002        0.0000000000000000     
  0.84108459999999996       0.56757886999999996        0.0000000000000000     
  0.83902096000000004       0.43344338999999998        0.0000000000000000     
  0.43230028999999998       0.16004268999999999        0.0000000000000000     
  0.57536027999999995       0.83041363999999995        0.0000000000000000     
  0.15771898000000001       0.42747892999999998        0.0000000000000000     
  0.34021692999999997       0.34221559000000001        0.0000000000000000     
  0.56002271999999997       0.57501117999999996        0.0000000000000000     
  0.65344329000000001       0.78147597999999996        0.0000000000000000     
   0.0000000000000000        0.0000000000000000        0.0000000000000000     
   1.0000000000000000        0.0000000000000000        0.0000000000000000     
   1.0000000000000000        1.0000000000000000        0.0000000000000000     
   0.0000000000000000        1.0000000000000000        0.0000000000000000     
  0.11111111000000000        0.0000000000000000        0.0000000000000000     
  0.22222222000000000        0.0000000000000000        0.0000000000000000     
  0.33333332999999998        0.0000000000000000        0.0000000000000000     
  0.44444444000000000        0.0000000000000000        0.0000000000000000     
  0.55555555999999995        0.0000000000000000        0.0000000000000000     
  0.66666667000000002        0.0000000000000000        0.0000000000000000     
  0.77777777999999997        0.0000000000000000        0.0000000000000000     
  0.88888889000000004        0.0000000000000000        0.0000000000000000     
   1.0000000000000000       0.11111111000000000        0.0000000000000000     
   1.0000000000000000       0.22222222000000000        0.0000000000000000     
   1.0000000000000000       0.33333332999999998        0.0000000000000000     
   1.0000000000000000       0.44444444000000000        0.0000000000000000     
   1.0000000000000000       0.55555555999999995        0.0000000000000000     
   1.0000000000000000       0.66666667000000002        0.0000000000000000     
   1.0000000000000000       0.77777777999999997        0.0000000000000000     
   1.0000000000000000       0.88888889000000004        0.0000000000000000     
  0.88888889000000004        1.0000000000000000        0.0000000000000000     
  0.77777777999999997        1.0000000000000000        0.0000000000000000     
  0.66666667000000002        1.0000000000000000        0.0000000000000000     
  0.55555555999999995        1.0000000000000000        0.0000000000000000     
  0.44444444000000000        1.0000000000000000        0.0000000000000000     
  0.33333332999999998        1.0000000000000000        0.0000000000000000     
  0.22222222000000000        1.0000000000000000        0.0000000000000000     
  0.11111111000000000        1.0000000000000000        0.0000000000000000     
   0.0000000000000000       0.11111111000000000        0.0000000000000000     
   0.0000000000000000       0.22222222000000000        0.0000000000000000     
[...]
 CELL_DATA         354
 SCALARS V float
 LOOKUP_TABLE default
    0.26985297328885283694E-02
    0.78279125532117188602E-02
    0.20253723188234191641E-02
    0.20375735444886160751E-02
    0.31169878891524433959E-02
    0.36150282143177507772E-02
    0.13414489419080449090E-01
    0.79955582617532473810E-02
    0.15288470967845538273E-01
    0.16606446179195204216E-01
    0.19344548971027532291E-01
    0.18219434568368678140E-01
    0.19606461706735092698E-01
    0.19832218805667711781E-01
    0.19497420371195318956E-01
    0.19855800580074869921E-01
    0.18904784987808696817E-01
    0.17390588012000669782E-01
    0.12162276172685964129E-01
    0.16019870824573262391E-01
    0.10351054485951020900E-01
    0.12682321733805759084E-01
    0.15035038616159360214E-01
    0.13666580692417176768E-01
    0.15238936377212724399E-01
    0.14831744229679214020E-01
    0.10973555107714338605E-01
    0.13854709665088123238E-01
    0.79487894245977366858E-02
    0.57057373344762164769E-02
    0.29754530847543514058E-02
    0.33785118735566652126E-02
    0.27399116306293306959E-02
    0.24270748385901309147E-02
    0.21081102638903291384E-02
    0.22567034502708497798E-02
    0.20626904228877424551E-02
    0.20702485360289918197E-02
    0.22087976556684121160E-02
    0.21088551374677864773E-02
    0.22180823486368204944E-02
    0.22385370790811327801E-02
    0.22792808639438390597E-02
    0.22497390161085044531E-02
    0.22721990312996082247E-02
    0.21306868311694688797E-02
    0.20437642856931505578E-02
    0.20712592823781753038E-02
    0.20173711505014507196E-02
    0.19756174924461496548E-02
    0.19638348217785521303E-02
    0.19281302631597050865E-02
    0.27971731568840144805E-02
    0.28239281329539996611E-02
    0.30505511152355813641E-02
    0.28774397629706327181E-02
    0.30307972397460372638E-02
    0.29527192169181430866E-02
    0.28458192919772768575E-02
    0.29147056574575554849E-02
    0.27433855747599714819E-02
    0.25176147460296521667E-02
    0.22006820217031425671E-02
    0.23816795241708987874E-02
    0.21170102987839536403E-02
    0.19921580920009298275E-02
    0.18649392994199852532E-02
    0.19092734349781534994E-02
    0.19160524816266132769E-01
    0.18261773208226361742E-01
    0.17758543089213235655E-01
    0.18589570651682575664E-01
    0.18172322088514540617E-01
    0.18344992426593743906E-01
    0.16622028883602604776E-01
    0.15045490046195302697E-01
    0.15512109063143566384E-01
    0.17331538196021067932E-01
    0.11546535127138105731E-01
    0.13751208779930204629E-01
    0.48976079187355008732E-02
    0.93713836623570793971E-02
    0.14089994737976327399E-01
    0.66349803467605633633E-02
    0.18656774118892015257E-01
    0.18835614130098356223E-01
    0.16149775074131345054E-01
    0.19102252002972400224E-01
    0.18851742076708068174E-01
    0.19783566235199299965E-01
    0.18106783517460322414E-01
    0.71199512010104524379E-02
    0.65712972601220708338E-02
    0.35973883683181285750E-02
    0.34149669710259109023E-02
    0.38190293813794859781E-02
    0.94947986657374881803E-02
    0.14703152666321458661E-01
    0.18148288571842429578E-01
    0.15921654849456658154E-01
    0.17570248555720549555E-01
    0.14753303888732442403E-01
    0.16508224682134552130E-01
    0.19830910934137455093E-01
    0.19840721572493065505E-01
    0.20068916432420556839E-01
    0.20168693147926134573E-01
    0.19658961983507222682E-01
    0.11924157203961477380E-01
    0.89539365405459613034E-02
    0.35394366907770158544E-02
    0.85793630243214211856E-02
    0.43178832372278274504E-02
    0.41018125677540259039E-02
    0.15240800913923473886E-01
    0.59350020292303351521E-02
    0.11490929035586678122E-01
    0.15194818481926587739E-01
    0.14614047045989496734E-01
    0.63353910824963232534E-02
    0.11688541655835073957E-01
    0.26854135349954921276E-02
    0.30692530457951320948E-02
    0.24754212105202568275E-02
    0.32656206536061734187E-02
    0.35337447972687684866E-02
    0.24626288608646917239E-02
    0.26384890309603921746E-02
    0.72879544608701885000E-02
    0.13388266956834071406E-01
    0.43803300933045723892E-02
    0.14166645273745084171E-01
    0.12184197915034444826E-01
    0.38661703055789019626E-02
    0.89047543899401851442E-02
    0.16415488188218134435E-01
    0.18165303263237168874E-01
    0.15898052326121830252E-01
    0.17708075373343463987E-01
    0.18444427372569665441E-01
    0.16916246515151826812E-01
    0.15551733417400192411E-01
    0.23030831914377185819E-02
    0.22100471044190508028E-02
    0.20173336594176299354E-02
    0.26324184815481408567E-02
    0.25430527696676395906E-02
    0.20461794204648872664E-02
    0.20811305417342234984E-02
    0.18185865966002068977E-01
    0.18960727487415614950E-01
    0.19769859356812687773E-01
    0.18464832158027182085E-01
    0.20303898879743532274E-01
    0.18486628818530706497E-01
    0.15833257305836453271E-01
    0.17640111984666546202E-01
    0.18508440794589617329E-01
    0.15669508950471474490E-01
    0.17436964307143112268E-01
    0.13881437574701803450E-01
    0.16960334903631826137E-01
    0.16054805997605212098E-01
    0.15012383669524887592E-01
    0.14969976879426537958E-01
    0.29617341954236366293E-02
    0.35239796107733858607E-02
    0.29798155387028338846E-02
    0.33885945855620666980E-02
    0.36910534870474806003E-02
    0.15700443018562583453E-01
    0.18483202863263846483E-01
    0.16831366886634106794E-01
    0.16966324051526662786E-01
    0.18290106268991489225E-01
    0.77276904827620470848E-02
    0.12741047860163702554E-01
    0.14281576360294688868E-01
    0.56650462758339936373E-02
    0.10738245430611099290E-01
    0.18094387722670655927E-01
    0.16249697731311435467E-01
    0.17579374529887586975E-01
    0.15762410438340739710E-01
    0.17010511125432219159E-01
    0.46103058980968029609E-02
    0.13676257589960730265E-01
    0.89420139983167334918E-02
    0.83335982381414035192E-02
    0.13024966390835680460E-01
    0.19572816398938947674E-01
    0.19424500888854480396E-01
    0.19210744280843843057E-01
    0.19663339896997242273E-01
    0.20398460897524849783E-01
    0.28960758836098121800E-02
    0.38777538677309854320E-02
    0.31807232794687123785E-02
    0.31439461376020494399E-02
    0.36161426531679803469E-02
    0.26408993598999340111E-02
    0.25035123082033090662E-02
    0.27807249705353682609E-02
    0.24548312439719118840E-02
    0.29634054127417024799E-02
    0.18020294563431477758E-01
    0.19352008866649360319E-01
    0.19190129504274927585E-01
    0.19112898829603517520E-01
    0.19528362644208506482E-01
    0.13524150471180877708E-01
    0.13163672330211460132E-01
    0.15089184659133100808E-01
    0.14407269696770873962E-01
    0.15506406093963941151E-01
    0.17534386988267584850E-01
    0.15526739964179404191E-01
    0.15742379378244176352E-01
    0.17242903122952048245E-01
    0.17003915608761157457E-01
    0.14764510150777674855E-01
    0.14183758608081045022E-01
    0.14965383134454068176E-01
    0.47331796687515859112E-02
    0.12883505236330874966E-01
    0.24209481203074905559E-02
    0.26115313873425662766E-02
    0.31432231112209574678E-02
    0.31399563525003840875E-02
    0.31104957585658377615E-02
    0.34867240613006269742E-02
    0.37839927995127085533E-02
    0.56396090336614038141E-02
    0.10129011824515615769E-01
    0.13623252350296819954E-01
    0.13162667562477931710E-01
    0.14471395094401373616E-01
    0.19601658329720161866E-01
    0.19154347033112899962E-01
    0.20547144611057166497E-01
    0.19128987465587495714E-01
    0.14052474201832025613E-01
    0.45267760512671794543E-02
    0.65796018323619198664E-02
    0.18339710027600625297E-01
    0.18065501941260712904E-01
    0.30929111700393986314E-02
    0.25663454238431288208E-02
    0.23613124262277370921E-02
    0.10350218991469619517E-01
    0.38100526604603031713E-02
    0.34946893199260071691E-02
    0.14701787049193098394E-01
    0.15885918652703029386E-01
    0.12076059978079105653E-01
    0.17045781133755138342E-01
    0.15342734700264464703E-01
    0.15297585085442169661E-01
    0.40306502929648643785E-02
    0.39843142785543827697E-02
    0.28022719369780362333E-02
    0.18827971343582081826E-01
    0.19678003471055818818E-01
    0.18230888918518782515E-01
    0.27307290937528981220E-02
    0.26292864955402431640E-02
    0.21445503260292589874E-02
    0.25312364681917493350E-02
    0.22619254856102218726E-02
    0.20374786352064435530E-02
    0.18294066626562847933E-01
    0.20222765454555806375E-01
    0.18924264181945329999E-01
    0.18547395701207499558E-01
    0.12709630392492827708E-01
    0.16829546018424741682E-01
    0.14417500341255391760E-01
    0.14534247898111231356E-01
    0.38089230137420765701E-02
    0.13911761469246134923E-01
    0.11987685811914398221E-01
    0.60587128107932606072E-02
    0.19225472312461498042E-01
    0.19413616539468894762E-01
    0.18551781058224060816E-01
    0.17472822475236272910E-01
    0.16888188270197279639E-01
    0.33069452875560119247E-02
    0.41915872519154946316E-02
    0.22272245991389809198E-02
    0.23582437151014141660E-02
    0.15759091530658218133E-01
    0.14366041215937035147E-01
    0.18772498215428225915E-02
    0.19041312580005394315E-02
    0.14343716689424128308E-01
    0.44385578755664865935E-02
    0.40931629167379277728E-02
    0.18479476339882203867E-01
    0.29944891674611321189E-02
    0.14484895955627088981E-01
    0.20544897359011764226E-01
    0.31410416738950116405E-02
    0.18485686505476786601E-01
    0.15503441337982811626E-01
    0.16769401603971886144E-01
    0.14475429402971322704E-01
    0.16378913450187649464E-01
    0.30466191910216654758E-02
    0.33899970994944856294E-02
    0.11848339585806860752E-01
    0.14964759715860800546E-01
    0.18532487002126486753E-01
    0.53922791480499644712E-02
    0.18630475033355263503E-01
    0.15715490197858495575E-01
    0.16509860412851556227E-01
    0.38957306095281905335E-02
    0.26724554459135003645E-02
    0.23804174684386530080E-02
    0.61024612535698699589E-02
    0.52483509427040031178E-02
    0.19887124915554947775E-02
    0.19500690689178805381E-02
    0.20876686596529442363E-02
    0.19760337323978657484E-02
    0.35216110414254034842E-02
    0.92890763217817091946E-02
    0.10367838992907284917E-01
    0.11537197112003483648E-01
    0.11883781464161146529E-01
    0.11403885882121581399E-01
    0.10248305771275698778E-01
    0.81884512643298455747E-02
    0.96321110417333655196E-02
    0.91797759525804739633E-02
    0.60540936451498250301E-02
    0.30780224827696039437E-02
    0.25920426258358988600E-02
    0.22367844381967890918E-02
    0.19749201998641558418E-02
    0.20147248717283464808E-02
    0.20384581136472703505E-02
    0.20366152357293725202E-02
    0.19862054444256590363E-02
    0.19448601116635534820E-02
    0.19843370911285670120E-02
    0.25270565958216192198E-02
    0.25928274979838969796E-02
    0.25437542162245630611E-02
    0.24212606424431513605E-02
    0.22182404693077456721E-02
    0.20300213340642995694E-02
    0.19489339915478745384E-02
