# vtk DataFile Version 3.0
LAPLACIEN  2D
ASCII
DATASET UNSTRUCTURED_GRID
 POINTS         391  float
  0.50371505999999999       0.50367786999999997        0.0000000000000000     
  0.29013556000000001       0.29014535000000002        0.0000000000000000     
  0.70165584999999997       0.71206597999999999        0.0000000000000000     
  0.70304188999999995       0.30176619999999998        0.0000000000000000     
  0.30920671999999999       0.71149227999999998        0.0000000000000000     
  0.79044983999999996       0.49884783999999999        0.0000000000000000     
  0.49102621000000002       0.20968644000000000        0.0000000000000000     
  0.49912957000000002       0.77208717000000004        0.0000000000000000     
  0.21724072999999999       0.48989389000000000        0.0000000000000000     
  0.83255933999999998       0.83046598000000005        0.0000000000000000     
  0.16646774000000000       0.17015694000000001        0.0000000000000000     
  0.83054514999999995       0.16736480000000001        0.0000000000000000     
  0.16953130999999999       0.83265739000000005        0.0000000000000000     
  0.42166445000000002       0.36345201999999999        0.0000000000000000     
  0.64462200999999997       0.56347807999999999        0.0000000000000000     
  0.35324633999999999       0.56311191000000005        0.0000000000000000     
  0.65456411000000003       0.84856860999999995        0.0000000000000000     
  0.35141477999999998       0.15563974000000000        0.0000000000000000     
  0.15290967000000000       0.35206625000000003        0.0000000000000000     
  0.82942241000000005       0.34936866000000000        0.0000000000000000     
  0.84390527000000004       0.64441694999999999        0.0000000000000000     
  0.63699174999999997       0.14284276000000001        0.0000000000000000     
  0.15620682999999999       0.64648446999999998        0.0000000000000000     
  0.36426062999999997       0.85756310999999996        0.0000000000000000     
  0.63489340999999999       0.40519052000000000        0.0000000000000000     
  0.52518872999999999       0.65957078000000002        0.0000000000000000     
  0.32158959999999998       0.42298103999999997        0.0000000000000000     
  0.58861710000000000       0.31711036999999997        0.0000000000000000     
  0.42078418000000001       0.69497151999999995        0.0000000000000000     
  0.48608786999999998       0.89334152000000000        0.0000000000000000     
   9.7084320000000002E-002  0.50000000000000000        0.0000000000000000     
  0.90291568000000000       0.50000000000000000        0.0000000000000000     
  0.51392453000000005       0.10668648999999999        0.0000000000000000     
  0.59792566999999996       0.73122754000000001        0.0000000000000000     
  0.74510058999999995       0.41124730999999998        0.0000000000000000     
  0.73212551999999997       0.90191560000000004        0.0000000000000000     
   9.7784830000000003E-002  0.26957329000000002        0.0000000000000000     
  0.26711221000000002        9.8671499999999995E-002   0.0000000000000000     
  0.90191560000000004       0.26787448000000003        0.0000000000000000     
  0.90118569000000004       0.73039821000000005        0.0000000000000000     
  0.73122947000000005        9.8017859999999998E-002   0.0000000000000000     
   9.8084400000000002E-002  0.73212551999999997        0.0000000000000000     
  0.26957329000000002       0.90221516999999996        0.0000000000000000     
  0.39283522999999998       0.25360379000000000        0.0000000000000000     
  0.74480864000000002       0.60495284999999999        0.0000000000000000     
  0.25505132000000003       0.60593640999999998        0.0000000000000000     
  0.52159297999999998       0.40671636000000000        0.0000000000000000     
  0.40768852000000000       0.47699891000000000        0.0000000000000000     
   9.1467049999999994E-002   9.1876959999999994E-002   0.0000000000000000     
  0.90842484999999995       0.90819225000000003        0.0000000000000000     
  0.90820104999999995        9.1566729999999999E-002   0.0000000000000000     
   9.1807449999999999E-002  0.90843574000000005        0.0000000000000000     
  0.27098960000000000       0.20527094000000001        0.0000000000000000     
  0.73457293999999995       0.79835387000000002        0.0000000000000000     
  0.79817773000000003       0.25713470999999999        0.0000000000000000     
  0.20747797000000001       0.72863946000000002        0.0000000000000000     
  0.20175195000000001       0.27583914999999998        0.0000000000000000     
  0.79603889000000005       0.72159035000000005        0.0000000000000000     
  0.71761666000000002       0.19748431999999999        0.0000000000000000     
  0.28462607000000001       0.80251899999999998        0.0000000000000000     
  0.69134598999999997       0.49261972999999998        0.0000000000000000     
  0.44720578999999999       0.58582935999999997        0.0000000000000000     
  0.24242269999999999       0.37228174000000003        0.0000000000000000     
  0.38265623999999998       0.93072131999999996        0.0000000000000000     
  0.60971754000000000       0.91988369000000003        0.0000000000000000     
   7.9163609999999995E-002  0.60979116000000000        0.0000000000000000     
  0.92010649000000000       0.61081183999999999        0.0000000000000000     
  0.61954008999999999        7.1530830000000004E-002   0.0000000000000000     
  0.91882012999999996       0.38917363999999999        0.0000000000000000     
  0.39086346000000000        8.0652249999999995E-002   0.0000000000000000     
   7.9183480000000001E-002  0.38966213000000000        0.0000000000000000     
  0.59114111999999996       0.49294315000000000        0.0000000000000000     
  0.63337980999999999       0.64485914000000000        0.0000000000000000     
  0.50012352000000004       0.29676539000000002        0.0000000000000000     
  0.82552601000000003       0.92753492000000004        0.0000000000000000     
  0.92774772999999999       0.82498556999999995        0.0000000000000000     
   7.1970870000000006E-002  0.17510291000000000        0.0000000000000000     
  0.17422821999999999        7.2635640000000001E-002   0.0000000000000000     
  0.82510813000000005        7.2134840000000006E-002   0.0000000000000000     
  0.92754665000000003       0.17446275999999999        0.0000000000000000     
  0.17501022999999999       0.92789951999999998        0.0000000000000000     
   7.2464680000000004E-002  0.82554053000000005        0.0000000000000000     
  0.30731587999999999       0.50885354999999999        0.0000000000000000     
  0.59033407999999998       0.22171178999999999        0.0000000000000000     
  0.40109191999999999       0.78725542000000004        0.0000000000000000     
  0.35420917000000002       0.63754104000000000        0.0000000000000000     
  0.15983976999999999       0.56665573000000002        0.0000000000000000     
  0.84108459999999996       0.56757886999999996        0.0000000000000000     
  0.83902096000000004       0.43344338999999998        0.0000000000000000     
  0.43230028999999998       0.16004268999999999        0.0000000000000000     
  0.57536027999999995       0.83041363999999995        0.0000000000000000     
  0.15771898000000001       0.42747892999999998        0.0000000000000000     
  0.34021692999999997       0.34221559000000001        0.0000000000000000     
  0.56002271999999997       0.57501117999999996        0.0000000000000000     
  0.65344329000000001       0.78147597999999996        0.0000000000000000     
   0.0000000000000000        0.0000000000000000        0.0000000000000000     
   1.0000000000000000        0.0000000000000000        0.0000000000000000     
   1.0000000000000000        1.0000000000000000        0.0000000000000000     
   0.0000000000000000        1.0000000000000000        0.0000000000000000     
  0.11111111000000000        0.0000000000000000        0.0000000000000000     
  0.22222222000000000        0.0000000000000000        0.0000000000000000     
  0.33333332999999998        0.0000000000000000        0.0000000000000000     
  0.44444444000000000        0.0000000000000000        0.0000000000000000     
  0.55555555999999995        0.0000000000000000        0.0000000000000000     
  0.66666667000000002        0.0000000000000000        0.0000000000000000     
  0.77777777999999997        0.0000000000000000        0.0000000000000000     
  0.88888889000000004        0.0000000000000000        0.0000000000000000     
   1.0000000000000000       0.11111111000000000        0.0000000000000000     
   1.0000000000000000       0.22222222000000000        0.0000000000000000     
   1.0000000000000000       0.33333332999999998        0.0000000000000000     
   1.0000000000000000       0.44444444000000000        0.0000000000000000     
   1.0000000000000000       0.55555555999999995        0.0000000000000000     
   1.0000000000000000       0.66666667000000002        0.0000000000000000     
   1.0000000000000000       0.77777777999999997        0.0000000000000000     
   1.0000000000000000       0.88888889000000004        0.0000000000000000     
  0.88888889000000004        1.0000000000000000        0.0000000000000000     
  0.77777777999999997        1.0000000000000000        0.0000000000000000     
  0.66666667000000002        1.0000000000000000        0.0000000000000000     
  0.55555555999999995        1.0000000000000000        0.0000000000000000     
  0.44444444000000000        1.0000000000000000        0.0000000000000000     
  0.33333332999999998        1.0000000000000000        0.0000000000000000     
  0.22222222000000000        1.0000000000000000        0.0000000000000000     
  0.11111111000000000        1.0000000000000000        0.0000000000000000     
   0.0000000000000000       0.11111111000000000        0.0000000000000000     
   0.0000000000000000       0.22222222000000000        0.0000000000000000     
[...]
 CELL_DATA         354
 SCALARS V float
 LOOKUP_TABLE default
    0.26506492031937462645E-02
    0.78193115123837576147E-02
    0.19914057878278185187E-02
    0.20064921752158968241E-02
    0.30613305326478920665E-02
    0.35615859030199165797E-02
    0.13233659369268391953E-01
    0.78746052354842794446E-02
    0.15082980556393949315E-01
    0.16337907028981107915E-01
    0.19015791901742143399E-01
    0.17909381595838914925E-01
    0.19280712359350145324E-01
    0.19501504063016490698E-01
    0.19169426111383489064E-01
    0.19521046995590898149E-01
    0.18584221484322090839E-01
    0.17096828811638511286E-01
    0.12026499993315531781E-01
    0.15748667795782718415E-01
    0.10278058808766241117E-01
    0.12533639074756051240E-01
    0.14815717186585988796E-01
    0.13475535812195696406E-01
    0.15007302454582951284E-01
    0.14600228523320851748E-01
    0.10842737391490393783E-01
    0.13641440267724899010E-01
    0.78923993170855501200E-02
    0.56478096795625244708E-02
    0.29228992735334416268E-02
    0.33195158531630773908E-02
    0.26913632130820810615E-02
    0.23842560721947440687E-02
    0.20718568083113566083E-02
    0.22174088012668325375E-02
    0.20275190466490520050E-02
    0.20347234916564451573E-02
    0.21702599295538591365E-02
    0.20722961379672868477E-02
    0.21793899604727242497E-02
    0.21994129711929992672E-02
    0.22393678917172364293E-02
    0.22103496575886609488E-02
    0.22323762361936916668E-02
    0.20935208040982200561E-02
    0.20085979852534131297E-02
    0.20354434102894522138E-02
    0.19830611928722823196E-02
    0.19427482214311663725E-02
    0.19328138866923701578E-02
    0.18968724405113673685E-02
    0.27473374305352574881E-02
    0.27734620026340240512E-02
    0.29962033575258520401E-02
    0.28260415850726600812E-02
    0.29772109226191231270E-02
    0.29004009727104057385E-02
    0.27952839465254270164E-02
    0.28628712733783415710E-02
    0.26947517496161421668E-02
    0.24730916413912033477E-02
    0.21623320481723141105E-02
    0.23398208163686777875E-02
    0.20804631338011479562E-02
    0.19582241351046767407E-02
    0.18347109966241558453E-02
    0.18775977947975564918E-02
    0.18862616763469442632E-01
    0.17956246306570975563E-01
    0.17450725167881826760E-01
    0.18291631112511551327E-01
    0.17855957849740571736E-01
    0.18029078654014214778E-01
    0.16328176762349742163E-01
    0.14787709513780760567E-01
    0.15243878933986869384E-01
    0.17033828489037124154E-01
    0.11399349867014595128E-01
    0.13537112651207865860E-01
    0.48516396120957885896E-02
    0.92419696855463896734E-02
    0.13906838695603475353E-01
    0.65418145172245357327E-02
    0.18355552219059215885E-01
    0.18614552658295896448E-01
    0.15964512580191735081E-01
    0.18844089284482862245E-01
    0.18564130001031031031E-01
    0.19526870566424311959E-01
    0.17895515386686291354E-01
    0.70308264767442382737E-02
    0.64875634547941389910E-02
    0.35352423478696810497E-02
    0.33546293496077590063E-02
    0.37541275869862862982E-02
    0.93914740259185714583E-02
    0.14443670240721705189E-01
    0.17833068356500423463E-01
    0.15642973469092540106E-01
    0.17264077058810632648E-01
    0.14495670539507690688E-01
    0.16217499928338145743E-01
    0.19562493292974887649E-01
    0.19554209821286083759E-01
    0.19856770495923228848E-01
    0.19970261881319666120E-01
    0.19376412499530148992E-01
    0.11741688473831678879E-01
    0.88505267277419648331E-02
    0.34762467088442676813E-02
    0.84598338935007871831E-02
    0.42756890602591579587E-02
    0.40521380584937916752E-02
    0.14988686955673249934E-01
    0.58834836925994379864E-02
    0.11342306211309272079E-01
    0.14935060991015582099E-01
    0.14401512189113379464E-01
    0.62609525299147320704E-02
    0.11515311990492698574E-01
    0.26379273541784105384E-02
    0.30149488637394392804E-02
    0.24319471636334399726E-02
    0.32077052832213694654E-02
    0.34712151402973754309E-02
    0.24194763331860805536E-02
    0.25919905284994587853E-02
    0.72026364759857517892E-02
    0.13181554729108507784E-01
    0.43397450971303982298E-02
    0.13951086483885467848E-01
    0.12028316134834959872E-01
    0.38012514880496023166E-02
    0.87948798884024872308E-02
    0.16130171960001587345E-01
    0.17862044239489088815E-01
    0.15632489206087382683E-01
    0.17402311251615180249E-01
    0.18135808289627332324E-01
    0.16631907772072854895E-01
    0.15288158703642905703E-01
    0.22628088347100032071E-02
    0.21715590599298232460E-02
    0.19827375247628386927E-02
    0.25859302898403281265E-02
    0.24981461727184846137E-02
    0.20109791919602341449E-02
    0.20452299012846454108E-02
    0.17879206087044817453E-01
    0.18678460991829959337E-01
    0.19506376700490331288E-01
    0.18163391926820704469E-01
    0.20042244926837479019E-01
    0.18190719023083706113E-01
    0.15557283603019190013E-01
    0.17334184725707153102E-01
    0.18188302259148664275E-01
    0.15395129363194082900E-01
    0.17129577912031776488E-01
    0.13663977171806913208E-01
    0.16665835650137558743E-01
    0.15776339126187765433E-01
    0.14751963429616918311E-01
    0.14732901600859254349E-01
    0.29089475378373617215E-02
    0.34611149036490132004E-02
    0.29265085694539913139E-02
    0.33285613844582879681E-02
    0.36258024581752772500E-02
    0.15443412822722026034E-01
    0.18171960370785611438E-01
    0.16539526921784127034E-01
    0.16690476785954734551E-01
    0.17988536860881934598E-01
    0.76337915403219182980E-02
    0.12546328252357404759E-01
    0.14036733718620129571E-01
    0.56162426765968363057E-02
    0.10570402655731607477E-01
    0.17792645360160719986E-01
    0.15972920523497559364E-01
    0.17281691851493818229E-01
    0.15491475405209551020E-01
    0.16711149246027467291E-01
    0.45523170819192094322E-02
    0.13472196593634843190E-01
    0.88068146873599272711E-02
    0.82000770964065043678E-02
    0.12826430020884087638E-01
    0.19297131786031679335E-01
    0.19118686258916918475E-01
    0.18966406327442057733E-01
    0.19362866483696769548E-01
    0.20149364910501416787E-01
    0.28444706230683633810E-02
    0.38113665326338437740E-02
    0.31244620376438599768E-02
    0.30876849669379986818E-02
    0.35532585286454330953E-02
    0.25943684240553478021E-02
    0.24591616012974949410E-02
    0.27313377238423457855E-02
    0.24114653072130572999E-02
    0.29109793075091077580E-02
    0.17798562690767627537E-01
    0.19090136717272915279E-01
    0.18962377669911080480E-01
    0.18811787271756350015E-01
    0.19266436964982064373E-01
    0.13312010602138216880E-01
    0.12954987371156981291E-01
    0.14830707046875342414E-01
    0.14170265065971994825E-01
    0.15236615994992708245E-01
    0.17233890766248385895E-01
    0.15262809245704198752E-01
    0.15476009116129747084E-01
    0.16948345854773061436E-01
    0.16801031031885710343E-01
    0.14601179046752208596E-01
    0.14030477114906077241E-01
    0.14707918177429061407E-01
    0.46871176247410828442E-02
    0.12690258647829515126E-01
    0.23783048370067797796E-02
    0.25652669465931858539E-02
    0.30871494779041728021E-02
    0.30841366373561534403E-02
    0.30548927379283876901E-02
    0.34255334140892812304E-02
    0.37368218539651195179E-02
    0.55732623252637940314E-02
    0.10036662930675951250E-01
    0.13407814770824056164E-01
    0.12974666180638413232E-01
    0.14219518389603476652E-01
    0.19300019555589832676E-01
    0.18830919811987277546E-01
    0.20270519603446956330E-01
    0.18833296661148229284E-01
    0.13864488178827403739E-01
    0.44729772644482614086E-02
    0.64777246549535096379E-02
    0.18037190119179397074E-01
    0.17749674833199880625E-01
    0.30380059764316459138E-02
    0.25208242256538966782E-02
    0.23199315456945064119E-02
    0.10227317607256199844E-01
    0.37689899903201990426E-02
    0.34356450775767611791E-02
    0.14465160914929562144E-01
    0.15639581710273200987E-01
    0.11883407716967582871E-01
    0.16747986512289526201E-01
    0.15100512810133803754E-01
    0.15060630647837580653E-01
    0.39722713238808486647E-02
    0.39239965905889986203E-02
    0.27527478922180111109E-02
    0.18528785270946798724E-01
    0.19353849453834115479E-01
    0.17922272379049367791E-01
    0.26823746459938005091E-02
    0.25826120159002504892E-02
    0.21074381297944790904E-02
    0.24865513445564485159E-02
    0.22222826928918492685E-02
    0.20024930801970661567E-02
    0.17973075128906182418E-01
    0.19928649729679732971E-01
    0.18633923785705566734E-01
    0.18249616396032286580E-01
    0.12502679859643470173E-01
    0.16533303068843485661E-01
    0.14186158196944916032E-01
    0.14307966077443612374E-01
    0.37439207797324708382E-02
    0.13705923716664351192E-01
    0.11831573713812420373E-01
    0.59701824759216537419E-02
    0.18917994010588874004E-01
    0.19162346687707040860E-01
    0.18340032758892361314E-01
    0.17171816476333097434E-01
    0.16595318978816220312E-01
    0.32480851755081045253E-02
    0.41538641876268369776E-02
    0.21885271213256899531E-02
    0.23169572838488824637E-02
    0.15493756094639625151E-01
    0.14174584487828954804E-01
    0.18456658680474551191E-02
    0.18719094534978681071E-02
    0.14109188089044339548E-01
    0.43877124473533316712E-02
    0.40331461272434436863E-02
    0.18192102016501544848E-01
    0.29411956725138438395E-02
    0.14247849301583116050E-01
    0.20312866489745100979E-01
    0.30854275664936375509E-02
    0.18182373789724107227E-01
    0.15232199014581806334E-01
    0.16475237391301463669E-01
    0.14216620223600123785E-01
    0.16093039809179240929E-01
    0.29923411490947694411E-02
    0.33293850172071365670E-02
    0.11686707169869286344E-01
    0.14703240844013667349E-01
    0.18222688255179961270E-01
    0.53227718808659734914E-02
    0.18307069005841752896E-01
    0.15439912475424390909E-01
    0.16372806721822598386E-01
    0.38300207800986271409E-02
    0.26249351197207230341E-02
    0.23384632528018526286E-02
    0.60674675669179526857E-02
    0.52098979862917615957E-02
    0.19556632989997609941E-02
    0.19179770168465306440E-02
    0.20570406131982712367E-02
    0.19464203815096514823E-02
    0.34695878773139780804E-02
    0.91711935919877307644E-02
    0.10191752745444319223E-01
    0.11341460690473235268E-01
    0.11681581149792286123E-01
    0.11210190455454535283E-01
    0.10073788073981664731E-01
    0.80638359862679424156E-02
    0.94779643863886799127E-02
    0.90267404134607414495E-02
    0.59881769882143762174E-02
    0.30240209340958723594E-02
    0.25461255293851322960E-02
    0.21978356769197151394E-02
    0.19413613401711377407E-02
    0.19799862728894692537E-02
    0.20031184633595043240E-02
    0.20013636263429964920E-02
    0.19520999793298803200E-02
    0.19121846588566211028E-02
    0.19527029729102898283E-02
    0.24822399006855315994E-02
    0.25467949841931542855E-02
    0.24985981585328295371E-02
    0.23784424853797213675E-02
    0.21793347461998889905E-02
    0.19951564245860387362E-02
    0.19168653392596165120E-02
