# vtk DataFile Version 3.0
LAPLACIEN  2D
ASCII
DATASET UNSTRUCTURED_GRID
 POINTS         391  float
  0.50371505999999999       0.50367786999999997        0.0000000000000000     
  0.29013556000000001       0.29014535000000002        0.0000000000000000     
  0.70165584999999997       0.71206597999999999        0.0000000000000000     
  0.70304188999999995       0.30176619999999998        0.0000000000000000     
  0.30920671999999999       0.71149227999999998        0.0000000000000000     
  0.79044983999999996       0.49884783999999999        0.0000000000000000     
  0.49102621000000002       0.20968644000000000        0.0000000000000000     
  0.49912957000000002       0.77208717000000004        0.0000000000000000     
  0.21724072999999999       0.48989389000000000        0.0000000000000000     
  0.83255933999999998       0.83046598000000005        0.0000000000000000     
  0.16646774000000000       0.17015694000000001        0.0000000000000000     
  0.83054514999999995       0.16736480000000001        0.0000000000000000     
  0.16953130999999999       0.83265739000000005        0.0000000000000000     
  0.42166445000000002       0.36345201999999999        0.0000000000000000     
  0.64462200999999997       0.56347807999999999        0.0000000000000000     
  0.35324633999999999       0.56311191000000005        0.0000000000000000     
  0.65456411000000003       0.84856860999999995        0.0000000000000000     
  0.35141477999999998       0.15563974000000000        0.0000000000000000     
  0.15290967000000000       0.35206625000000003        0.0000000000000000     
  0.82942241000000005       0.34936866000000000        0.0000000000000000     
  0.84390527000000004       0.64441694999999999        0.0000000000000000     
  0.63699174999999997       0.14284276000000001        0.0000000000000000     
  0.15620682999999999       0.64648446999999998        0.0000000000000000     
  0.36426062999999997       0.85756310999999996        0.0000000000000000     
  0.63489340999999999       0.40519052000000000        0.0000000000000000     
  0.52518872999999999       0.65957078000000002        0.0000000000000000     
  0.32158959999999998       0.42298103999999997        0.0000000000000000     
  0.58861710000000000       0.31711036999999997        0.0000000000000000     
  0.42078418000000001       0.69497151999999995        0.0000000000000000     
  0.48608786999999998       0.89334152000000000        0.0000000000000000     
   9.7084320000000002E-002  0.50000000000000000        0.0000000000000000     
  0.90291568000000000       0.50000000000000000        0.0000000000000000     
  0.51392453000000005       0.10668648999999999        0.0000000000000000     
  0.59792566999999996       0.73122754000000001        0.0000000000000000     
  0.74510058999999995       0.41124730999999998        0.0000000000000000     
  0.73212551999999997       0.90191560000000004        0.0000000000000000     
   9.7784830000000003E-002  0.26957329000000002        0.0000000000000000     
  0.26711221000000002        9.8671499999999995E-002   0.0000000000000000     
  0.90191560000000004       0.26787448000000003        0.0000000000000000     
  0.90118569000000004       0.73039821000000005        0.0000000000000000     
  0.73122947000000005        9.8017859999999998E-002   0.0000000000000000     
   9.8084400000000002E-002  0.73212551999999997        0.0000000000000000     
  0.26957329000000002       0.90221516999999996        0.0000000000000000     
  0.39283522999999998       0.25360379000000000        0.0000000000000000     
  0.74480864000000002       0.60495284999999999        0.0000000000000000     
  0.25505132000000003       0.60593640999999998        0.0000000000000000     
  0.52159297999999998       0.40671636000000000        0.0000000000000000     
  0.40768852000000000       0.47699891000000000        0.0000000000000000     
   9.1467049999999994E-002   9.1876959999999994E-002   0.0000000000000000     
  0.90842484999999995       0.90819225000000003        0.0000000000000000     
  0.90820104999999995        9.1566729999999999E-002   0.0000000000000000     
   9.1807449999999999E-002  0.90843574000000005        0.0000000000000000     
  0.27098960000000000       0.20527094000000001        0.0000000000000000     
  0.73457293999999995       0.79835387000000002        0.0000000000000000     
  0.79817773000000003       0.25713470999999999        0.0000000000000000     
  0.20747797000000001       0.72863946000000002        0.0000000000000000     
  0.20175195000000001       0.27583914999999998        0.0000000000000000     
  0.79603889000000005       0.72159035000000005        0.0000000000000000     
  0.71761666000000002       0.19748431999999999        0.0000000000000000     
  0.28462607000000001       0.80251899999999998        0.0000000000000000     
  0.69134598999999997       0.49261972999999998        0.0000000000000000     
  0.44720578999999999       0.58582935999999997        0.0000000000000000     
  0.24242269999999999       0.37228174000000003        0.0000000000000000     
  0.38265623999999998       0.93072131999999996        0.0000000000000000     
  0.60971754000000000       0.91988369000000003        0.0000000000000000     
   7.9163609999999995E-002  0.60979116000000000        0.0000000000000000     
  0.92010649000000000       0.61081183999999999        0.0000000000000000     
  0.61954008999999999        7.1530830000000004E-002   0.0000000000000000     
  0.91882012999999996       0.38917363999999999        0.0000000000000000     
  0.39086346000000000        8.0652249999999995E-002   0.0000000000000000     
   7.9183480000000001E-002  0.38966213000000000        0.0000000000000000     
  0.59114111999999996       0.49294315000000000        0.0000000000000000     
  0.63337980999999999       0.64485914000000000        0.0000000000000000     
  0.50012352000000004       0.29676539000000002        0.0000000000000000     
  0.82552601000000003       0.92753492000000004        0.0000000000000000     
  0.92774772999999999       0.82498556999999995        0.0000000000000000     
   7.1970870000000006E-002  0.17510291000000000        0.0000000000000000     
  0.17422821999999999        7.2635640000000001E-002   0.0000000000000000     
  0.82510813000000005        7.2134840000000006E-002   0.0000000000000000     
  0.92754665000000003       0.17446275999999999        0.0000000000000000     
  0.17501022999999999       0.92789951999999998        0.0000000000000000     
   7.2464680000000004E-002  0.82554053000000005        0.0000000000000000     
  0.30731587999999999       0.50885354999999999        0.0000000000000000     
  0.59033407999999998       0.22171178999999999        0.0000000000000000     
  0.40109191999999999       0.78725542000000004        0.0000000000000000     
  0.35420917000000002       0.63754104000000000        0.0000000000000000     
  0.15983976999999999       0.56665573000000002        0.0000000000000000     
  0.84108459999999996       0.56757886999999996        0.0000000000000000     
  0.83902096000000004       0.43344338999999998        0.0000000000000000     
  0.43230028999999998       0.16004268999999999        0.0000000000000000     
  0.57536027999999995       0.83041363999999995        0.0000000000000000     
  0.15771898000000001       0.42747892999999998        0.0000000000000000     
  0.34021692999999997       0.34221559000000001        0.0000000000000000     
  0.56002271999999997       0.57501117999999996        0.0000000000000000     
  0.65344329000000001       0.78147597999999996        0.0000000000000000     
   0.0000000000000000        0.0000000000000000        0.0000000000000000     
   1.0000000000000000        0.0000000000000000        0.0000000000000000     
   1.0000000000000000        1.0000000000000000        0.0000000000000000     
   0.0000000000000000        1.0000000000000000        0.0000000000000000     
  0.11111111000000000        0.0000000000000000        0.0000000000000000     
  0.22222222000000000        0.0000000000000000        0.0000000000000000     
  0.33333332999999998        0.0000000000000000        0.0000000000000000     
  0.44444444000000000        0.0000000000000000        0.0000000000000000     
  0.55555555999999995        0.0000000000000000        0.0000000000000000     
  0.66666667000000002        0.0000000000000000        0.0000000000000000     
  0.77777777999999997        0.0000000000000000        0.0000000000000000     
  0.88888889000000004        0.0000000000000000        0.0000000000000000     
   1.0000000000000000       0.11111111000000000        0.0000000000000000     
   1.0000000000000000       0.22222222000000000        0.0000000000000000     
   1.0000000000000000       0.33333332999999998        0.0000000000000000     
   1.0000000000000000       0.44444444000000000        0.0000000000000000     
   1.0000000000000000       0.55555555999999995        0.0000000000000000     
   1.0000000000000000       0.66666667000000002        0.0000000000000000     
   1.0000000000000000       0.77777777999999997        0.0000000000000000     
   1.0000000000000000       0.88888889000000004        0.0000000000000000     
  0.88888889000000004        1.0000000000000000        0.0000000000000000     
  0.77777777999999997        1.0000000000000000        0.0000000000000000     
  0.66666667000000002        1.0000000000000000        0.0000000000000000     
  0.55555555999999995        1.0000000000000000        0.0000000000000000     
  0.44444444000000000        1.0000000000000000        0.0000000000000000     
  0.33333332999999998        1.0000000000000000        0.0000000000000000     
  0.22222222000000000        1.0000000000000000        0.0000000000000000     
  0.11111111000000000        1.0000000000000000        0.0000000000000000     
   0.0000000000000000       0.11111111000000000        0.0000000000000000     
   0.0000000000000000       0.22222222000000000        0.0000000000000000     
[...]
 CELL_DATA         354
 SCALARS V float
 LOOKUP_TABLE default
    0.25728017866242050039E-02
    0.77514912711248032742E-02
    0.19358967222883175820E-02
    0.19548706160602081008E-02
    0.29708999349131481361E-02
    0.34714304214029313884E-02
    0.12909367928490105698E-01
    0.76691465117345349045E-02
    0.14716587722966866653E-01
    0.15891188159436148847E-01
    0.18477284781035566152E-01
    0.17400546807240065833E-01
    0.18745384628201598731E-01
    0.18958145395874537176E-01
    0.18630297554591397635E-01
    0.18971747692302989852E-01
    0.18057283965567865608E-01
    0.16612055891607191427E-01
    0.11776048571509396129E-01
    0.15295467362066456768E-01
    0.10104383848144885688E-01
    0.12260875249827028061E-01
    0.14438414948041457947E-01
    0.13141599987231453173E-01
    0.14612864705240268676E-01
    0.14208791330982135925E-01
    0.10598582162223021963E-01
    0.13280437464905306064E-01
    0.77557027350327427395E-02
    0.55296927243766724747E-02
    0.28374964204820377588E-02
    0.32237029563889200469E-02
    0.26123911176349321091E-02
    0.23146139073250324679E-02
    0.20127896006920530277E-02
    0.21534299317717440700E-02
    0.19701590780514602330E-02
    0.19768550389845998549E-02
    0.21075705585342366724E-02
    0.20128103134509967888E-02
    0.21164766708531650673E-02
    0.21357999009302664449E-02
    0.21744738596551288837E-02
    0.21463073547621663341E-02
    0.21676143658477097648E-02
    0.20330898277253436381E-02
    0.19513726126527096427E-02
    0.19771906124050877759E-02
    0.19271257755014252477E-02
    0.18889585800448832620E-02
    0.18816284559857827594E-02
    0.18455819833613769203E-02
    0.26663278345675114726E-02
    0.26914838618206150291E-02
    0.29078760174639410943E-02
    0.27425684090848106468E-02
    0.28901792986054781164E-02
    0.28154517713857214224E-02
    0.27131480786070001111E-02
    0.27786509353463066142E-02
    0.26156861151576987941E-02
    0.24007236437797578078E-02
    0.20999660041763905556E-02
    0.22717623270362336842E-02
    0.20209481183095204422E-02
    0.19029111685389043726E-02
    0.17852162195978833401E-02
    0.18258337884266330215E-02
    0.18371167655692854925E-01
    0.17454724399548666308E-01
    0.16947870358057157136E-01
    0.17803048502480465359E-01
    0.17340079715524200216E-01
    0.17514000357157576138E-01
    0.15849619591864261281E-01
    0.14364164276345762691E-01
    0.14805488174425205511E-01
    0.16548275621381197675E-01
    0.11131252017485278316E-01
    0.13168124223551683910E-01
    0.47624277448504153537E-02
    0.90097319047097376710E-02
    0.13575361739216404433E-01
    0.63820098480622932530E-02
    0.17860738788985707631E-01
    0.18214226304333856754E-01
    0.15642569236907048064E-01
    0.18397332833584096462E-01
    0.18087584955860547264E-01
    0.19072738875177137896E-01
    0.17516650130754114062E-01
    0.68696693899386465990E-02
    0.63288777289534714834E-02
    0.34340759513803945785E-02
    0.32562813477225458283E-02
    0.36490212263004286053E-02
    0.91843200586390338902E-02
    0.14020444948722600442E-01
    0.17319120464520880442E-01
    0.15188741820560534845E-01
    0.16764771039056547419E-01
    0.14075417536867784393E-01
    0.15743774218780620666E-01
    0.19104531848255341953E-01
    0.19071967768617439226E-01
    0.19447236884836995030E-01
    0.19576211837802396515E-01
    0.18896726973747932088E-01
    0.11423728298674957343E-01
    0.86548437922700713343E-02
    0.33732741399398998364E-02
    0.82453057831513246884E-02
    0.41921160767894637481E-02
    0.39608615814210228548E-02
    0.14569116217619051262E-01
    0.57773290502906148730E-02
    0.11068667868732062765E-01
    0.14501647913693769404E-01
    0.14031849062835031333E-01
    0.61189788940192012950E-02
    0.11213607873801264420E-01
    0.25606647734203354105E-02
    0.29265766903842343333E-02
    0.23611426329783261058E-02
    0.31133789112858046080E-02
    0.33693211031454502885E-02
    0.23492382417750002147E-02
    0.25163023431743689051E-02
    0.70430389291833176910E-02
    0.12822954483607073781E-01
    0.42593910773743859366E-02
    0.13581082981694827388E-01
    0.11744329723092829937E-01
    0.36958047651267198104E-02
    0.85916422174600742823E-02
    0.15664689302409520039E-01
    0.17363727348709310366E-01
    0.15192395933231593597E-01
    0.16903324053494327844E-01
    0.17630438738571296148E-01
    0.16163265332285025461E-01
    0.14854894072291641854E-01
    0.21972775279169099241E-02
    0.21089347464607246380E-02
    0.19263957705294367136E-02
    0.25102399325013444176E-02
    0.24250786687652833851E-02
    0.19536777555437387019E-02
    0.19867941151112309371E-02
    0.17378022431259979030E-01
    0.18204576524106272362E-01
    0.19043975744923412330E-01
    0.17668133083287448915E-01
    0.19578984413248262664E-01
    0.17701367805208180484E-01
    0.15107193061034869530E-01
    0.16835195703768915387E-01
    0.17666264711009387750E-01
    0.14947965022841208649E-01
    0.16628817074478559335E-01
    0.13297668931335382414E-01
    0.16184522660928287591E-01
    0.15321072469623598505E-01
    0.14325895777173393297E-01
    0.14334323876964240319E-01
    0.28230206507917189954E-02
    0.33586680798278504764E-02
    0.28397332891092739483E-02
    0.32307688612575953709E-02
    0.35194407186249173670E-02
    0.15016807842647160454E-01
    0.17663269860253690002E-01
    0.16063150598461795743E-01
    0.16232145993853613897E-01
    0.17493518625744858275E-01
    0.74592079238702084509E-02
    0.12205541822175348943E-01
    0.13627895293098664375E-01
    0.55156669388289952458E-02
    0.10283526098737259119E-01
    0.17299140257928148634E-01
    0.15520116199556059644E-01
    0.16794408749266728775E-01
    0.15048861630333039419E-01
    0.16223341797777568463E-01
    0.44496510113836811040E-02
    0.13114298225080579102E-01
    0.85725659053586915348E-02
    0.79755285668778926750E-02
    0.12481580903058526327E-01
    0.18827245073827780092E-01
    0.18610923752237301665E-01
    0.18534919576515616890E-01
    0.18860806504201903244E-01
    0.19703653292319951024E-01
    0.27604291488486651721E-02
    0.37030099666981765305E-02
    0.30328385557279414694E-02
    0.29960832787402384356E-02
    0.34509926839898234958E-02
    0.25187241383412802345E-02
    0.23870174852148162009E-02
    0.26510116699596849438E-02
    0.23409569396165906367E-02
    0.28257237112966201650E-02
    0.17407334685073830999E-01
    0.18636451364206860909E-01
    0.18548678309958214344E-01
    0.18315785239659581468E-01
    0.18809566078835014691E-01
    0.12948727415343072589E-01
    0.12596393470571247766E-01
    0.14404106425966999375E-01
    0.13774579558209112951E-01
    0.14796560137827752951E-01
    0.16743248355308611164E-01
    0.14828151925177734255E-01
    0.15037591644348589567E-01
    0.16466889671616365132E-01
    0.16448666555349114593E-01
    0.14322022094904202777E-01
    0.13770550402055450889E-01
    0.14278981084642957192E-01
    0.45975301215163758006E-02
    0.12354556239756158548E-01
    0.23089599942288895063E-02
    0.24900268746938518556E-02
    0.29959755765039093947E-02
    0.29932771505000246859E-02
    0.29644606050102727084E-02
    0.33261898898381725594E-02
    0.36515322214385791469E-02
    0.54520355164422353716E-02
    0.98492642648546173401E-02
    0.13046088378691218096E-01
    0.12655050670516733435E-01
    0.13808453856185377850E-01
    0.18796480635663137537E-01
    0.18300585680317640186E-01
    0.19796123545117796927E-01
    0.18341189909404462255E-01
    0.13527488553348005276E-01
    0.43758975762817758914E-02
    0.63061321801155794525E-02
    0.17541255609121744752E-01
    0.17234934966855800648E-01
    0.29485611494407264373E-02
    0.24467838053270620988E-02
    0.22526087703456697600E-02
    0.99918072060637425774E-02
    0.36932230426225290225E-02
    0.33399319981820365690E-02
    0.14066784767945834239E-01
    0.15224318587305902400E-01
    0.11554667822451944459E-01
    0.16262016157987547321E-01
    0.14693883965899649791E-01
    0.14660468104313432308E-01
    0.38717754810917021091E-02
    0.38232974068355038942E-02
    0.26721318537015316744E-02
    0.18033606898001500185E-01
    0.18819358529816129777E-01
    0.17414608285259518955E-01
    0.26036415463261473706E-02
    0.25066736408575242268E-02
    0.20470178288323780981E-02
    0.24138364057155734833E-02
    0.21577932010570020742E-02
    0.19455378974550349876E-02
    0.17450148676831499228E-01
    0.19436775229042163593E-01
    0.18149095061099122794E-01
    0.17757873989771827405E-01
    0.12149299587351242852E-01
    0.16050336921342979457E-01
    0.13797425173879423327E-01
    0.13922362602959420866E-01
    0.36378309781322309101E-02
    0.13350260421139691774E-01
    0.11543475927156477551E-01
    0.58140976825214801468E-02
    0.18410263748194360262E-01
    0.18721988368166776751E-01
    0.17958223324593985959E-01
    0.16679526829139191407E-01
    0.16116841440353569387E-01
    0.31525271939166319042E-02
    0.40782566460297016778E-02
    0.21255007670343420770E-02
    0.22497159574282302348E-02
    0.15049759204983092359E-01
    0.13836797476843496618E-01
    0.17942171650199866852E-02
    0.18194194564192848161E-02
    0.13718224563938737071E-01
    0.42920908039251973870E-02
    0.39340519119949604945E-02
    0.17717580581077290586E-01
    0.28544354002466142822E-02
    0.13849460794182078677E-01
    0.19877248671656175261E-01
    0.29949736915673708104E-02
    0.17685686979132097391E-01
    0.14784998210376289890E-01
    0.15995712587365318313E-01
    0.13788250705996561718E-01
    0.15626591101073360190E-01
    0.29039526514595338964E-02
    0.32307108235184733847E-02
    0.11406419876226998183E-01
    0.14276541752960690557E-01
    0.17714097017960547809E-01
    0.51978985948404228534E-02
    0.17779799255429239169E-01
    0.14990678630552697198E-01
    0.16084982709467954276E-01
    0.37241326061707167097E-02
    0.25476936359132094229E-02
    0.22703120036214096203E-02
    0.59899929404914299333E-02
    0.51151389976205833415E-02
    0.19016012592685314995E-02
    0.18654202141383533289E-02
    0.20057383040594806839E-02
    0.18972061731141165973E-02
    0.33818295546143386544E-02
    0.89546891986864510238E-02
    0.99028987728563642318E-02
    0.11021413068530810236E-01
    0.11351059214259655306E-01
    0.10892678706715661074E-01
    0.97859453660406083009E-02
    0.78519378200447523947E-02
    0.92206368945779923485E-02
    0.87740425726469430112E-02
    0.58599799222312197455E-02
    0.29365097934328896097E-02
    0.24715462990827952346E-02
    0.21344582541206096396E-02
    0.18866875530813708058E-02
    0.19234937060800042213E-02
    0.19456754874853942911E-02
    0.19440570740061724041E-02
    0.18966175518845417199E-02
    0.18588633235716938395E-02
    0.19005591131912940271E-02
    0.24094670330084160849E-02
    0.24720615817083167222E-02
    0.24252838477355990326E-02
    0.23089100943148484213E-02
    0.21161244641755509038E-02
    0.19384072457765018620E-02
    0.18643459273407572436E-02
