# vtk DataFile Version 3.0
LAPLACIEN  2D
ASCII
DATASET UNSTRUCTURED_GRID
 POINTS         391  float
  0.50371505999999999       0.50367786999999997        0.0000000000000000     
  0.29013556000000001       0.29014535000000002        0.0000000000000000     
  0.70165584999999997       0.71206597999999999        0.0000000000000000     
  0.70304188999999995       0.30176619999999998        0.0000000000000000     
  0.30920671999999999       0.71149227999999998        0.0000000000000000     
  0.79044983999999996       0.49884783999999999        0.0000000000000000     
  0.49102621000000002       0.20968644000000000        0.0000000000000000     
  0.49912957000000002       0.77208717000000004        0.0000000000000000     
  0.21724072999999999       0.48989389000000000        0.0000000000000000     
  0.83255933999999998       0.83046598000000005        0.0000000000000000     
  0.16646774000000000       0.17015694000000001        0.0000000000000000     
  0.83054514999999995       0.16736480000000001        0.0000000000000000     
  0.16953130999999999       0.83265739000000005        0.0000000000000000     
  0.42166445000000002       0.36345201999999999        0.0000000000000000     
  0.64462200999999997       0.56347807999999999        0.0000000000000000     
  0.35324633999999999       0.56311191000000005        0.0000000000000000     
  0.65456411000000003       0.84856860999999995        0.0000000000000000     
  0.35141477999999998       0.15563974000000000        0.0000000000000000     
  0.15290967000000000       0.35206625000000003        0.0000000000000000     
  0.82942241000000005       0.34936866000000000        0.0000000000000000     
  0.84390527000000004       0.64441694999999999        0.0000000000000000     
  0.63699174999999997       0.14284276000000001        0.0000000000000000     
  0.15620682999999999       0.64648446999999998        0.0000000000000000     
  0.36426062999999997       0.85756310999999996        0.0000000000000000     
  0.63489340999999999       0.40519052000000000        0.0000000000000000     
  0.52518872999999999       0.65957078000000002        0.0000000000000000     
  0.32158959999999998       0.42298103999999997        0.0000000000000000     
  0.58861710000000000       0.31711036999999997        0.0000000000000000     
  0.42078418000000001       0.69497151999999995        0.0000000000000000     
  0.48608786999999998       0.89334152000000000        0.0000000000000000     
   9.7084320000000002E-002  0.50000000000000000        0.0000000000000000     
  0.90291568000000000       0.50000000000000000        0.0000000000000000     
  0.51392453000000005       0.10668648999999999        0.0000000000000000     
  0.59792566999999996       0.73122754000000001        0.0000000000000000     
  0.74510058999999995       0.41124730999999998        0.0000000000000000     
  0.73212551999999997       0.90191560000000004        0.0000000000000000     
   9.7784830000000003E-002  0.26957329000000002        0.0000000000000000     
  0.26711221000000002        9.8671499999999995E-002   0.0000000000000000     
  0.90191560000000004       0.26787448000000003        0.0000000000000000     
  0.90118569000000004       0.73039821000000005        0.0000000000000000     
  0.73122947000000005        9.8017859999999998E-002   0.0000000000000000     
   9.8084400000000002E-002  0.73212551999999997        0.0000000000000000     
  0.26957329000000002       0.90221516999999996        0.0000000000000000     
  0.39283522999999998       0.25360379000000000        0.0000000000000000     
  0.74480864000000002       0.60495284999999999        0.0000000000000000     
  0.25505132000000003       0.60593640999999998        0.0000000000000000     
  0.52159297999999998       0.40671636000000000        0.0000000000000000     
  0.40768852000000000       0.47699891000000000        0.0000000000000000     
   9.1467049999999994E-002   9.1876959999999994E-002   0.0000000000000000     
  0.90842484999999995       0.90819225000000003        0.0000000000000000     
  0.90820104999999995        9.1566729999999999E-002   0.0000000000000000     
   9.1807449999999999E-002  0.90843574000000005        0.0000000000000000     
  0.27098960000000000       0.20527094000000001        0.0000000000000000     
  0.73457293999999995       0.79835387000000002        0.0000000000000000     
  0.79817773000000003       0.25713470999999999        0.0000000000000000     
  0.20747797000000001       0.72863946000000002        0.0000000000000000     
  0.20175195000000001       0.27583914999999998        0.0000000000000000     
  0.79603889000000005       0.72159035000000005        0.0000000000000000     
  0.71761666000000002       0.19748431999999999        0.0000000000000000     
  0.28462607000000001       0.80251899999999998        0.0000000000000000     
  0.69134598999999997       0.49261972999999998        0.0000000000000000     
  0.44720578999999999       0.58582935999999997        0.0000000000000000     
  0.24242269999999999       0.37228174000000003        0.0000000000000000     
  0.38265623999999998       0.93072131999999996        0.0000000000000000     
  0.60971754000000000       0.91988369000000003        0.0000000000000000     
   7.9163609999999995E-002  0.60979116000000000        0.0000000000000000     
  0.92010649000000000       0.61081183999999999        0.0000000000000000     
  0.61954008999999999        7.1530830000000004E-002   0.0000000000000000     
  0.91882012999999996       0.38917363999999999        0.0000000000000000     
  0.39086346000000000        8.0652249999999995E-002   0.0000000000000000     
   7.9183480000000001E-002  0.38966213000000000        0.0000000000000000     
  0.59114111999999996       0.49294315000000000        0.0000000000000000     
  0.63337980999999999       0.64485914000000000        0.0000000000000000     
  0.50012352000000004       0.29676539000000002        0.0000000000000000     
  0.82552601000000003       0.92753492000000004        0.0000000000000000     
  0.92774772999999999       0.82498556999999995        0.0000000000000000     
   7.1970870000000006E-002  0.17510291000000000        0.0000000000000000     
  0.17422821999999999        7.2635640000000001E-002   0.0000000000000000     
  0.82510813000000005        7.2134840000000006E-002   0.0000000000000000     
  0.92754665000000003       0.17446275999999999        0.0000000000000000     
  0.17501022999999999       0.92789951999999998        0.0000000000000000     
   7.2464680000000004E-002  0.82554053000000005        0.0000000000000000     
  0.30731587999999999       0.50885354999999999        0.0000000000000000     
  0.59033407999999998       0.22171178999999999        0.0000000000000000     
  0.40109191999999999       0.78725542000000004        0.0000000000000000     
  0.35420917000000002       0.63754104000000000        0.0000000000000000     
  0.15983976999999999       0.56665573000000002        0.0000000000000000     
  0.84108459999999996       0.56757886999999996        0.0000000000000000     
  0.83902096000000004       0.43344338999999998        0.0000000000000000     
  0.43230028999999998       0.16004268999999999        0.0000000000000000     
  0.57536027999999995       0.83041363999999995        0.0000000000000000     
  0.15771898000000001       0.42747892999999998        0.0000000000000000     
  0.34021692999999997       0.34221559000000001        0.0000000000000000     
  0.56002271999999997       0.57501117999999996        0.0000000000000000     
  0.65344329000000001       0.78147597999999996        0.0000000000000000     
   0.0000000000000000        0.0000000000000000        0.0000000000000000     
   1.0000000000000000        0.0000000000000000        0.0000000000000000     
   1.0000000000000000        1.0000000000000000        0.0000000000000000     
   0.0000000000000000        1.0000000000000000        0.0000000000000000     
  0.11111111000000000        0.0000000000000000        0.0000000000000000     
  0.22222222000000000        0.0000000000000000        0.0000000000000000     
  0.33333332999999998        0.0000000000000000        0.0000000000000000     
  0.44444444000000000        0.0000000000000000        0.0000000000000000     
  0.55555555999999995        0.0000000000000000        0.0000000000000000     
  0.66666667000000002        0.0000000000000000        0.0000000000000000     
  0.77777777999999997        0.0000000000000000        0.0000000000000000     
  0.88888889000000004        0.0000000000000000        0.0000000000000000     
   1.0000000000000000       0.11111111000000000        0.0000000000000000     
   1.0000000000000000       0.22222222000000000        0.0000000000000000     
   1.0000000000000000       0.33333332999999998        0.0000000000000000     
   1.0000000000000000       0.44444444000000000        0.0000000000000000     
   1.0000000000000000       0.55555555999999995        0.0000000000000000     
   1.0000000000000000       0.66666667000000002        0.0000000000000000     
   1.0000000000000000       0.77777777999999997        0.0000000000000000     
   1.0000000000000000       0.88888889000000004        0.0000000000000000     
  0.88888889000000004        1.0000000000000000        0.0000000000000000     
  0.77777777999999997        1.0000000000000000        0.0000000000000000     
  0.66666667000000002        1.0000000000000000        0.0000000000000000     
  0.55555555999999995        1.0000000000000000        0.0000000000000000     
  0.44444444000000000        1.0000000000000000        0.0000000000000000     
  0.33333332999999998        1.0000000000000000        0.0000000000000000     
  0.22222222000000000        1.0000000000000000        0.0000000000000000     
  0.11111111000000000        1.0000000000000000        0.0000000000000000     
   0.0000000000000000       0.11111111000000000        0.0000000000000000     
   0.0000000000000000       0.22222222000000000        0.0000000000000000     
[...]
 CELL_DATA         354
 SCALARS V float
 LOOKUP_TABLE default
    0.25881767726167923503E-02
    0.77695234826906335243E-02
    0.19468846900242040791E-02
    0.19651597836245473724E-02
    0.29887535994303450135E-02
    0.34895271339118860005E-02
    0.12975884510658571014E-01
    0.77104344055080242457E-02
    0.14791647119806967947E-01
    0.15980257560848004639E-01
    0.18583964741861330738E-01
    0.17501415317501975433E-01
    0.18851572969696590854E-01
    0.19065915507352440561E-01
    0.18737241684001287867E-01
    0.19080640521721915076E-01
    0.18161800880277891024E-01
    0.16708334391369025762E-01
    0.11828337277070442510E-01
    0.15385917047719731635E-01
    0.10143206549898963267E-01
    0.12317364802021134318E-01
    0.14514654728418448920E-01
    0.13209382287749767138E-01
    0.14692217872850238738E-01
    0.14287281937175686647E-01
    0.10649403666514513714E-01
    0.13352920670649068291E-01
    0.77862979930304592607E-02
    0.55549075792505238358E-02
    0.28543591129058338771E-02
    0.32426140160878094698E-02
    0.26279912958696630652E-02
    0.23283708313791063628E-02
    0.20244665922595859314E-02
    0.21660740176777937283E-02
    0.19815032760608169114E-02
    0.19882941697493446143E-02
    0.21199551903330372815E-02
    0.20245636073840493629E-02
    0.21289031962901799888E-02
    0.21483644243129613322E-02
    0.21872911453303077456E-02
    0.21589564635802493443E-02
    0.21804068143880472007E-02
    0.20450263259703662863E-02
    0.19626798560196914885E-02
    0.19886983384947748595E-02
    0.19381868878411119897E-02
    0.18996126724583539333E-02
    0.18918026787725981779E-02
    0.18557528327474014269E-02
    0.26823259279693352150E-02
    0.27076687821929353028E-02
    0.29253173516474448648E-02
    0.27590466586028331020E-02
    0.29073589435815215890E-02
    0.28322186047871193183E-02
    0.27293673880940797806E-02
    0.27952796298647037028E-02
    0.26313010714053104364E-02
    0.24150149901820631287E-02
    0.21122852699018484710E-02
    0.22852045434040759581E-02
    0.20327110557286000997E-02
    0.19138483467009488777E-02
    0.17950218238645598498E-02
    0.18360806161353900208E-02
    0.18468866703608421975E-01
    0.17554164469558146411E-01
    0.17047390987375808658E-01
    0.17899956336730696999E-01
    0.17442104926079830818E-01
    0.17615874675997303389E-01
    0.15944205301067562730E-01
    0.14448619235739170591E-01
    0.14892248491642025993E-01
    0.16644318738618948950E-01
    0.11186633056490088295E-01
    0.13242664051947438883E-01
    0.47813412362927923405E-02
    0.90573554279335700967E-02
    0.13643793928517649466E-01
    0.64142122517538389948E-02
    0.17958857011393859759E-01
    0.18296762974625471743E-01
    0.15707610809622341713E-01
    0.18488027337683260454E-01
    0.18182588233240461195E-01
    0.19165542463366911502E-01
    0.17594197294110693053E-01
    0.69029143057530795505E-02
    0.63619227939803804639E-02
    0.34540627616184613712E-02
    0.32757239716095323291E-02
    0.36697376266415079535E-02
    0.92283955576848968744E-02
    0.14104129835148103422E-01
    0.17420760293476712094E-01
    0.15278541349656114476E-01
    0.16863519010888793764E-01
    0.14158512698745340935E-01
    0.15837428335697258802E-01
    0.19196915164799377429E-01
    0.19168655404724684044E-01
    0.19533511621183684281E-01
    0.19660025186550432463E-01
    0.18993144994928455593E-01
    0.11488153796892112274E-01
    0.86958487134441674049E-02
    0.33936288666908420199E-02
    0.82893307588020239546E-02
    0.42099861054157947798E-02
    0.39798265662822282507E-02
    0.14652713283108173559E-01
    0.58002525710710087226E-02
    0.11125392890289138859E-01
    0.14588122264977583520E-01
    0.14107009999289682467E-01
    0.61486926599357500170E-02
    0.11274861387213390429E-01
    0.25759288450604772222E-02
    0.29440359541213559358E-02
    0.23751369959704197662E-02
    0.31320203981573899871E-02
    0.33894620420018592259E-02
    0.23631170032239589424E-02
    0.25312581022878559087E-02
    0.70763391926466842619E-02
    0.12895561844943679089E-01
    0.42765258440165127007E-02
    0.13655871769434540369E-01
    0.11803534410429673829E-01
    0.37166167658357830879E-02
    0.86337993853374574160E-02
    0.15756751303649538937E-01
    0.17462586308896792253E-01
    0.15280015091616302308E-01
    0.17002030175031240811E-01
    0.17730558723819730277E-01
    0.16256322238769022048E-01
    0.14940839471071602762E-01
    0.22102247637177368372E-02
    0.21213077887269034608E-02
    0.19375322021276170006E-02
    0.25251977945142350772E-02
    0.24395144579946554872E-02
    0.19650016977974913042E-02
    0.19983416567903051347E-02
    0.17477241727318175435E-01
    0.18299402667539953204E-01
    0.19138267268042900848E-01
    0.17766386811685526415E-01
    0.19673761858688684073E-01
    0.17798704803821958909E-01
    0.15196192353689302532E-01
    0.16933886566618309988E-01
    0.17769511841703646005E-01
    0.15036358331745710432E-01
    0.16727813697038705631E-01
    0.13371239845659538964E-01
    0.16279786130817645862E-01
    0.15411186727495626569E-01
    0.14410239285123870728E-01
    0.14414311541479256362E-01
    0.28399995633298326034E-02
    0.33789196380331737966E-02
    0.28568800151049043162E-02
    0.32500970348617618834E-02
    0.35404677371045105080E-02
    0.15101773487514978667E-01
    0.17763996480499106428E-01
    0.16157408053559071948E-01
    0.16323460796834755870E-01
    0.17591703912084546979E-01
    0.74955219009905631883E-02
    0.12275201402901406156E-01
    0.13709520201491895430E-01
    0.55373836908610522822E-02
    0.10341317784954034975E-01
    0.17396847404990867236E-01
    0.15609785963843127859E-01
    0.16890903886344007384E-01
    0.15136460216320235181E-01
    0.16319782420181241922E-01
    0.44706802543037233583E-02
    0.13187100386198417207E-01
    0.86199878932935944387E-02
    0.80205168369701911740E-02
    0.12551510405910053930E-01
    0.18921818924195369510E-01
    0.18712063751133017897E-01
    0.18623165302548122524E-01
    0.18961085735675640984E-01
    0.19795222159279906443E-01
    0.27770387805734547335E-02
    0.37244408703528439179E-02
    0.30509454701136114532E-02
    0.30141849815951710784E-02
    0.34711882701216000523E-02
    0.25336631777466119345E-02
    0.24012695353759355710E-02
    0.26668785260644473425E-02
    0.23548829443020458281E-02
    0.28425627474107551147E-02
    0.17486918072726804346E-01
    0.18728602851193373174E-01
    0.18634006672353053274E-01
    0.18414284939073887609E-01
    0.18902480325772096081E-01
    0.13021932676328729084E-01
    0.12668728900674965793E-01
    0.14488867740345889520E-01
    0.13853572590070750703E-01
    0.14883574109745559971E-01
    0.16840327290085395362E-01
    0.14914419963968684330E-01
    0.15124589215684131061E-01
    0.16562205281952607078E-01
    0.16519899002134977306E-01
    0.14377964082584800132E-01
    0.13822483191149833801E-01
    0.14364526620511157071E-01
    0.46165604128252379912E-02
    0.12422707001848016378E-01
    0.23226570628570382578E-02
    0.25048886535641978063E-02
    0.30139819227187536130E-02
    0.30112295681606676342E-02
    0.29823226952460707082E-02
    0.33457955444347073186E-02
    0.36691810293957741011E-02
    0.54770907714151101722E-02
    0.98895379706589892771E-02
    0.13118493072071669980E-01
    0.12719590293156429056E-01
    0.13889746651765531860E-01
    0.18897020305392663031E-01
    0.18405690694649482625E-01
    0.19891962217999777096E-01
    0.18439332729427014568E-01
    0.13596820300205553905E-01
    0.43959353639727184043E-02
    0.63403833970097816033E-02
    0.17639550385913221886E-01
    0.17336716946805805911E-01
    0.29662406393869836588E-02
    0.24614095635639562584E-02
    0.22659090891943541382E-02
    0.10041688278818879446E-01
    0.37090467222627020345E-02
    0.33588087244179041548E-02
    0.14146619180407191824E-01
    0.15307556956725313496E-01
    0.11620741106990357949E-01
    0.16358150683903248390E-01
    0.14775226050576333731E-01
    0.14740724944284168407E-01
    0.38921046375040499465E-02
    0.38434401638018406318E-02
    0.26880613200498120093E-02
    0.18132135784730479128E-01
    0.18925521917667324778E-01
    0.17515335683424778507E-01
    0.26192009508303809237E-02
    0.25216761092102472214E-02
    0.20589583921515300542E-02
    0.24282032360498141156E-02
    0.21705336772378895638E-02
    0.19567936819375477374E-02
    0.17553529822487475703E-01
    0.19535161894543080774E-01
    0.18245921114504220356E-01
    0.17855634207667836488E-01
    0.12220370790747902418E-01
    0.16145838032257241179E-01
    0.13875229437447353723E-01
    0.13999987266388642243E-01
    0.36588134293514262829E-02
    0.13422407204752701687E-01
    0.11603247230149646430E-01
    0.58457726338578316211E-02
    0.18511184339463412213E-01
    0.18811766357157051061E-01
    0.18036745342759126498E-01
    0.16776998169410937967E-01
    0.16211526472302735524E-01
    0.31713856911947989684E-02
    0.40944473380213099178E-02
    0.21379582956318633064E-02
    0.22630062729158137783E-02
    0.15138478650183636448E-01
    0.13905882788039124892E-01
    0.18043876972205772410E-02
    0.18297960009009588481E-02
    0.13796770665821442986E-01
    0.43120600844596401746E-02
    0.39538293718345508473E-02
    0.17812065046087281750E-01
    0.28715795008982035290E-02
    0.13929650986004613045E-01
    0.19968222592231726215E-01
    0.30128400916867277906E-02
    0.17784082600872389707E-01
    0.14873814467570196929E-01
    0.16090525486949759648E-01
    0.13873474213679369560E-01
    0.15718858148410289749E-01
    0.29214206012640299773E-02
    0.32502084946147090892E-02
    0.11463479888823721597E-01
    0.14360923087236552448E-01
    0.17814942002048361758E-01
    0.52235204464114717501E-02
    0.17884075044488488559E-01
    0.15079491461535927954E-01
    0.16146969369349208068E-01
    0.37449653438847698914E-02
    0.25629474799280039035E-02
    0.22837675213348666847E-02
    0.60073588596981494434E-02
    0.51363052082593818257E-02
    0.19123073261977294440E-02
    0.18758332997726111756E-02
    0.20160004154777077905E-02
    0.19070180434695011267E-02
    0.33994469405543084606E-02
    0.89995081424702801781E-02
    0.99601442469176709738E-02
    0.11084768837715187201E-01
    0.11416480167078073282E-01
    0.10955589892563868254E-01
    0.98430943119432109945E-02
    0.78944583633018504398E-02
    0.92720240004541439049E-02
    0.88242442805693578622E-02
    0.58870027444286364762E-02
    0.29537673184673813101E-02
    0.24862698356779085358E-02
    0.21469803923207372506E-02
    0.18974960861740778912E-02
    0.19346531691745787965E-02
    0.19570204622585745877E-02
    0.19553756246486215381E-02
    0.19075791769269765004E-02
    0.18694119068205644618E-02
    0.19109188901847676441E-02
    0.24238325582115007907E-02
    0.24868128528673216077E-02
    0.24397553910354796529E-02
    0.23226364294167906391E-02
    0.21286056802613125515E-02
    0.19496215781973789873E-02
    0.18747516912399444285E-02
