# vtk DataFile Version 3.0
LAPLACIEN  2D
ASCII
DATASET UNSTRUCTURED_GRID
 POINTS         391  float
  0.50371505999999999       0.50367786999999997        0.0000000000000000     
  0.29013556000000001       0.29014535000000002        0.0000000000000000     
  0.70165584999999997       0.71206597999999999        0.0000000000000000     
  0.70304188999999995       0.30176619999999998        0.0000000000000000     
  0.30920671999999999       0.71149227999999998        0.0000000000000000     
  0.79044983999999996       0.49884783999999999        0.0000000000000000     
  0.49102621000000002       0.20968644000000000        0.0000000000000000     
  0.49912957000000002       0.77208717000000004        0.0000000000000000     
  0.21724072999999999       0.48989389000000000        0.0000000000000000     
  0.83255933999999998       0.83046598000000005        0.0000000000000000     
  0.16646774000000000       0.17015694000000001        0.0000000000000000     
  0.83054514999999995       0.16736480000000001        0.0000000000000000     
  0.16953130999999999       0.83265739000000005        0.0000000000000000     
  0.42166445000000002       0.36345201999999999        0.0000000000000000     
  0.64462200999999997       0.56347807999999999        0.0000000000000000     
  0.35324633999999999       0.56311191000000005        0.0000000000000000     
  0.65456411000000003       0.84856860999999995        0.0000000000000000     
  0.35141477999999998       0.15563974000000000        0.0000000000000000     
  0.15290967000000000       0.35206625000000003        0.0000000000000000     
  0.82942241000000005       0.34936866000000000        0.0000000000000000     
  0.84390527000000004       0.64441694999999999        0.0000000000000000     
  0.63699174999999997       0.14284276000000001        0.0000000000000000     
  0.15620682999999999       0.64648446999999998        0.0000000000000000     
  0.36426062999999997       0.85756310999999996        0.0000000000000000     
  0.63489340999999999       0.40519052000000000        0.0000000000000000     
  0.52518872999999999       0.65957078000000002        0.0000000000000000     
  0.32158959999999998       0.42298103999999997        0.0000000000000000     
  0.58861710000000000       0.31711036999999997        0.0000000000000000     
  0.42078418000000001       0.69497151999999995        0.0000000000000000     
  0.48608786999999998       0.89334152000000000        0.0000000000000000     
   9.7084320000000002E-002  0.50000000000000000        0.0000000000000000     
  0.90291568000000000       0.50000000000000000        0.0000000000000000     
  0.51392453000000005       0.10668648999999999        0.0000000000000000     
  0.59792566999999996       0.73122754000000001        0.0000000000000000     
  0.74510058999999995       0.41124730999999998        0.0000000000000000     
  0.73212551999999997       0.90191560000000004        0.0000000000000000     
   9.7784830000000003E-002  0.26957329000000002        0.0000000000000000     
  0.26711221000000002        9.8671499999999995E-002   0.0000000000000000     
  0.90191560000000004       0.26787448000000003        0.0000000000000000     
  0.90118569000000004       0.73039821000000005        0.0000000000000000     
  0.73122947000000005        9.8017859999999998E-002   0.0000000000000000     
   9.8084400000000002E-002  0.73212551999999997        0.0000000000000000     
  0.26957329000000002       0.90221516999999996        0.0000000000000000     
  0.39283522999999998       0.25360379000000000        0.0000000000000000     
  0.74480864000000002       0.60495284999999999        0.0000000000000000     
  0.25505132000000003       0.60593640999999998        0.0000000000000000     
  0.52159297999999998       0.40671636000000000        0.0000000000000000     
  0.40768852000000000       0.47699891000000000        0.0000000000000000     
   9.1467049999999994E-002   9.1876959999999994E-002   0.0000000000000000     
  0.90842484999999995       0.90819225000000003        0.0000000000000000     
  0.90820104999999995        9.1566729999999999E-002   0.0000000000000000     
   9.1807449999999999E-002  0.90843574000000005        0.0000000000000000     
  0.27098960000000000       0.20527094000000001        0.0000000000000000     
  0.73457293999999995       0.79835387000000002        0.0000000000000000     
  0.79817773000000003       0.25713470999999999        0.0000000000000000     
  0.20747797000000001       0.72863946000000002        0.0000000000000000     
  0.20175195000000001       0.27583914999999998        0.0000000000000000     
  0.79603889000000005       0.72159035000000005        0.0000000000000000     
  0.71761666000000002       0.19748431999999999        0.0000000000000000     
  0.28462607000000001       0.80251899999999998        0.0000000000000000     
  0.69134598999999997       0.49261972999999998        0.0000000000000000     
  0.44720578999999999       0.58582935999999997        0.0000000000000000     
  0.24242269999999999       0.37228174000000003        0.0000000000000000     
  0.38265623999999998       0.93072131999999996        0.0000000000000000     
  0.60971754000000000       0.91988369000000003        0.0000000000000000     
   7.9163609999999995E-002  0.60979116000000000        0.0000000000000000     
  0.92010649000000000       0.61081183999999999        0.0000000000000000     
  0.61954008999999999        7.1530830000000004E-002   0.0000000000000000     
  0.91882012999999996       0.38917363999999999        0.0000000000000000     
  0.39086346000000000        8.0652249999999995E-002   0.0000000000000000     
   7.9183480000000001E-002  0.38966213000000000        0.0000000000000000     
  0.59114111999999996       0.49294315000000000        0.0000000000000000     
  0.63337980999999999       0.64485914000000000        0.0000000000000000     
  0.50012352000000004       0.29676539000000002        0.0000000000000000     
  0.82552601000000003       0.92753492000000004        0.0000000000000000     
  0.92774772999999999       0.82498556999999995        0.0000000000000000     
   7.1970870000000006E-002  0.17510291000000000        0.0000000000000000     
  0.17422821999999999        7.2635640000000001E-002   0.0000000000000000     
  0.82510813000000005        7.2134840000000006E-002   0.0000000000000000     
  0.92754665000000003       0.17446275999999999        0.0000000000000000     
  0.17501022999999999       0.92789951999999998        0.0000000000000000     
   7.2464680000000004E-002  0.82554053000000005        0.0000000000000000     
  0.30731587999999999       0.50885354999999999        0.0000000000000000     
  0.59033407999999998       0.22171178999999999        0.0000000000000000     
  0.40109191999999999       0.78725542000000004        0.0000000000000000     
  0.35420917000000002       0.63754104000000000        0.0000000000000000     
  0.15983976999999999       0.56665573000000002        0.0000000000000000     
  0.84108459999999996       0.56757886999999996        0.0000000000000000     
  0.83902096000000004       0.43344338999999998        0.0000000000000000     
  0.43230028999999998       0.16004268999999999        0.0000000000000000     
  0.57536027999999995       0.83041363999999995        0.0000000000000000     
  0.15771898000000001       0.42747892999999998        0.0000000000000000     
  0.34021692999999997       0.34221559000000001        0.0000000000000000     
  0.56002271999999997       0.57501117999999996        0.0000000000000000     
  0.65344329000000001       0.78147597999999996        0.0000000000000000     
   0.0000000000000000        0.0000000000000000        0.0000000000000000     
   1.0000000000000000        0.0000000000000000        0.0000000000000000     
   1.0000000000000000        1.0000000000000000        0.0000000000000000     
   0.0000000000000000        1.0000000000000000        0.0000000000000000     
  0.11111111000000000        0.0000000000000000        0.0000000000000000     
  0.22222222000000000        0.0000000000000000        0.0000000000000000     
  0.33333332999999998        0.0000000000000000        0.0000000000000000     
  0.44444444000000000        0.0000000000000000        0.0000000000000000     
  0.55555555999999995        0.0000000000000000        0.0000000000000000     
  0.66666667000000002        0.0000000000000000        0.0000000000000000     
  0.77777777999999997        0.0000000000000000        0.0000000000000000     
  0.88888889000000004        0.0000000000000000        0.0000000000000000     
   1.0000000000000000       0.11111111000000000        0.0000000000000000     
   1.0000000000000000       0.22222222000000000        0.0000000000000000     
   1.0000000000000000       0.33333332999999998        0.0000000000000000     
   1.0000000000000000       0.44444444000000000        0.0000000000000000     
   1.0000000000000000       0.55555555999999995        0.0000000000000000     
   1.0000000000000000       0.66666667000000002        0.0000000000000000     
   1.0000000000000000       0.77777777999999997        0.0000000000000000     
   1.0000000000000000       0.88888889000000004        0.0000000000000000     
  0.88888889000000004        1.0000000000000000        0.0000000000000000     
  0.77777777999999997        1.0000000000000000        0.0000000000000000     
  0.66666667000000002        1.0000000000000000        0.0000000000000000     
  0.55555555999999995        1.0000000000000000        0.0000000000000000     
  0.44444444000000000        1.0000000000000000        0.0000000000000000     
  0.33333332999999998        1.0000000000000000        0.0000000000000000     
  0.22222222000000000        1.0000000000000000        0.0000000000000000     
  0.11111111000000000        1.0000000000000000        0.0000000000000000     
   0.0000000000000000       0.11111111000000000        0.0000000000000000     
   0.0000000000000000       0.22222222000000000        0.0000000000000000     
[...]
 CELL_DATA         354
 SCALARS V float
 LOOKUP_TABLE default
    0.25272551516846738888E-02
    0.76870241435193706336E-02
    0.19032824776130004285E-02
    0.19241545088195003907E-02
    0.29180307155135176353E-02
    0.34170827924161128672E-02
    0.12706491397544622535E-01
    0.75451143535782295296E-02
    0.14487773370121723865E-01
    0.15625285340360454273E-01
    0.18160485499274840737E-01
    0.17100877262694349351E-01
    0.18429727939494641720E-01
    0.18637813619264947951E-01
    0.18312407555151493516E-01
    0.18648209288090470542E-01
    0.17746654231482299202E-01
    0.16325682411266209670E-01
    0.11613822801977490701E-01
    0.15025430112201226818E-01
    0.99790601862774636066E-02
    0.12087027166200423403E-01
    0.14208427702983356458E-01
    0.12936659604058072318E-01
    0.14374382397264701822E-01
    0.13973593760762221747E-01
    0.10441836502083145372E-01
    0.13062767415561676518E-01
    0.76569734823808115881E-02
    0.54508027031395277565E-02
    0.27875565483590413959E-02
    0.31677203446570153383E-02
    0.25661704927891753475E-02
    0.22738533220300009147E-02
    0.19781684367548022299E-02
    0.21159517691328347082E-02
    0.19365129269420418290E-02
    0.19429408688974281715E-02
    0.20708721628759567228E-02
    0.19779781623162212556E-02
    0.20796599694536772526E-02
    0.20985749697479340499E-02
    0.21365010123934515679E-02
    0.21088323819813212939E-02
    0.21297118318110118407E-02
    0.19977233589079891260E-02
    0.19178606563678656221E-02
    0.19430907926603914991E-02
    0.18943217755192766436E-02
    0.18573187212854659796E-02
    0.18513241063059749855E-02
    0.18153479388682239749E-02
    0.26189389656510199920E-02
    0.26435517106702596801E-02
    0.28562182347175112639E-02
    0.26937728058637829161E-02
    0.28393136253891562530E-02
    0.27658121206164845533E-02
    0.26651077258117699537E-02
    0.27294034333048182786E-02
    0.25694303959025166506E-02
    0.23583899091205572790E-02
    0.20634649851231055828E-02
    0.22319387139707550644E-02
    0.19860784839419998171E-02
    0.18704768083228000101E-02
    0.17560908330988048674E-02
    0.17954180166333279754E-02
    0.18079993542445455673E-01
    0.17159217994687541581E-01
    0.16652527888739773049E-01
    0.17514719116797160259E-01
    0.17037463335183890278E-01
    0.17211775501868281646E-01
    0.15569237661465212125E-01
    0.14113679781004126457E-01
    0.14548065915517143648E-01
    0.16263334060068385112E-01
    0.10961204964231075626E-01
    0.12943479396311071555E-01
    0.47031111243164168065E-02
    0.88645977542697075580E-02
    0.13365173610015778499E-01
    0.62850994001672540884E-02
    0.17569101013828775093E-01
    0.17961285453065266304E-01
    0.15446966279137464353E-01
    0.18122219813654052295E-01
    0.17803591062549015134E-01
    0.18790064069841565242E-01
    0.17280751697034378578E-01
    0.67675869369387669366E-02
    0.62273425659114100411E-02
    0.33748639825016499977E-02
    0.31986450119416381770E-02
    0.35877324379180626501E-02
    0.90464199349014062790E-02
    0.13772332502561233925E-01
    0.17017653155412471727E-01
    0.14922518690167460576E-01
    0.16471887183412248223E-01
    0.13829076125780406098E-01
    0.15466086611155473868E-01
    0.18825663719401121432E-01
    0.18781731747750263911E-01
    0.19178952893065003005E-01
    0.19313697000992197106E-01
    0.18607082622065226202E-01
    0.11229225761659064609E-01
    0.85276078096063485240E-02
    0.33129393423097456411E-02
    0.81110215110420762208E-02
    0.41357177463260666114E-02
    0.39023658142911272356E-02
    0.14319893165605591945E-01
    0.57045152196823619914E-02
    0.10894111210599603454E-01
    0.14243485258926481124E-01
    0.13803690587989416241E-01
    0.60271865521987488812E-02
    0.11028048985991837153E-01
    0.25154359146093928888E-02
    0.28748453334902705596E-02
    0.23196601827574644082E-02
    0.30581321449935669303E-02
    0.33096226134041958379E-02
    0.23081074996003114221E-02
    0.24719804321413942072E-02
    0.69400337759043355390E-02
    0.12603778823600707976E-01
    0.42054626321581297516E-02
    0.13355203796737730865E-01
    0.11562745701170600021E-01
    0.36342003338356932210E-02
    0.84619700686355270314E-02
    0.15391666574104248544E-01
    0.17069792082323443499E-01
    0.14931503481173474812E-01
    0.16610564300442096086E-01
    0.17333098807512336420E-01
    0.15886458837498923513E-01
    0.14599438709004701475E-01
    0.21589099776280523853E-02
    0.20722678201732288444E-02
    0.18933805754686333124E-02
    0.24659074248178465202E-02
    0.23823018781359071687E-02
    0.19201124685761603722E-02
    0.19525677150654349203E-02
    0.17083468196756712576E-01
    0.17920716649886699740E-01
    0.18757196576871512650E-01
    0.17375967297871178219E-01
    0.19290009706835132414E-01
    0.17411343179943080534E-01
    0.14843308941070984530E-01
    0.16542469694877309089E-01
    0.17360006829004945295E-01
    0.14685945163455581264E-01
    0.16335275894999206486E-01
    0.13076352819344373019E-01
    0.15901826762554433642E-01
    0.15053658137522702570E-01
    0.14075632284685031873E-01
    0.14093856717346500002E-01
    0.27727036585826680612E-02
    0.32986360494617482549E-02
    0.27889184087805394055E-02
    0.31734820440003047408E-02
    0.34571083515663749396E-02
    0.14763450441250897810E-01
    0.17364135466345683584E-01
    0.15783463926970386915E-01
    0.15959796918326881604E-01
    0.17201564267299646743E-01
    0.73471887519020399188E-02
    0.11995354765091455207E-01
    0.13384017101810873757E-01
    0.54467036338549015134E-02
    0.10109670085065643186E-01
    0.17009043542176270625E-01
    0.15253887581530067852E-01
    0.16507956626968738056E-01
    0.14788908393633790408E-01
    0.15937385248621920020E-01
    0.43854289661659643165E-02
    0.12893692577478552824E-01
    0.84294211470344864584E-02
    0.78406288491951296737E-02
    0.12270076656805267712E-01
    0.18542893110663961898E-01
    0.18309308391091821955E-01
    0.18266058293456597511E-01
    0.18561037500128139272E-01
    0.19423756610750554652E-01
    0.27111982845672497056E-02
    0.36394643853427527391E-02
    0.29791761280929737743E-02
    0.29424357472953412487E-02
    0.33911826400651362730E-02
    0.24744711805132386939E-02
    0.23447875440234691551E-02
    0.26040024933488403053E-02
    0.22997003748724785532E-02
    0.27758393632660470149E-02
    0.17166603233274499440E-01
    0.18356838676300741425E-01
    0.18287269314717705115E-01
    0.18022605170385452844E-01
    0.18527664215830477734E-01
    0.12728504370295658579E-01
    0.12378673276187433794E-01
    0.14151849969841954341E-01
    0.13538592454156365627E-01
    0.14538575998787908045E-01
    0.16455213588826986953E-01
    0.14571662744432688219E-01
    0.14778970998784916532E-01
    0.16183931381096739593E-01
    0.16234247577068889462E-01
    0.14154987644458457904E-01
    0.13615763574992219981E-01
    0.14023646253250005023E-01
    0.45377323142590337765E-02
    0.12148074849637899991E-01
    0.22683797714319747785E-02
    0.24459961066089722787E-02
    0.29426387007658177941E-02
    0.29400803350621948669E-02
    0.29115447087108871360E-02
    0.32681543634955323961E-02
    0.35972318230735457305E-02
    0.53750354477132391076E-02
    0.97216914210542359348E-02
    0.12829166301105287759E-01
    0.12459723581693324390E-01
    0.13567426400471128967E-01
    0.18496010766578661888E-01
    0.17988359820117469368E-01
    0.19506645309196421478E-01
    0.18048126529659765105E-01
    0.13315079729013348450E-01
    0.43143266641218792901E-02
    0.62039656434450581729E-02
    0.17249195279855387281E-01
    0.16933076396894349014E-01
    0.28961558435593361821E-02
    0.24034494988899165677E-02
    0.22131973055437774260E-02
    0.98376528741027091662E-02
    0.36440482349933208013E-02
    0.32840846046573168859E-02
    0.13827496570439266887E-01
    0.14974803501587682919E-01
    0.11356402499401032496E-01
    0.15976842220850277082E-01
    0.14450523245137793585E-01
    0.14419815989459997332E-01
    0.38103863632447834524E-02
    0.37629155344587193917E-02
    0.26249251566641883075E-02
    0.17739973817177866200E-01
    0.18503450878924979084E-01
    0.17115155018313656099E-01
    0.25575259272908458345E-02
    0.24622190091027076030E-02
    0.20116249888339557406E-02
    0.23712621177828410550E-02
    0.21200398267225552089E-02
    0.19121739749579967985E-02
    0.17143595388383024714E-01
    0.19141910410058131375E-01
    0.17859662132542392099E-01
    0.17466689870435064824E-01
    0.11935950881088699255E-01
    0.15767126752025795167E-01
    0.13564536407228518569E-01
    0.13688922400479894975E-01
    0.35756140946408797310E-02
    0.13131602050438714868E-01
    0.11359465139217617483E-01
    0.57185799537631133022E-02
    0.18109749367486716043E-01
    0.18448909635368961751E-01
    0.17718148686768794148E-01
    0.16390178962924349670E-01
    0.15835909586623259093E-01
    0.30967037786927792235E-02
    0.40271374493190612021E-02
    0.20885713631547727503E-02
    0.22103192359759706205E-02
    0.14784871893967843973E-01
    0.13626300697851506660E-01
    0.17640617294569079995E-02
    0.17886528960541501002E-02
    0.13483732175583858226E-01
    0.42303680493935742757E-02
    0.38747616871894997523E-02
    0.17435418458257058438E-01
    0.28036282563770427087E-02
    0.13609944750354752846E-01
    0.19595835834819955168E-01
    0.29420458992731567116E-02
    0.17393398045161760634E-01
    0.14520747320184278911E-01
    0.15714570675587662824E-01
    0.13534313849380998768E-01
    0.15352892613190487897E-01
    0.28521806276111316344E-02
    0.31729322022612765734E-02
    0.11232547287762163768E-01
    0.14026354358841440495E-01
    0.17414410551178118730E-01
    0.51197604011485224954E-02
    0.17470498321406270625E-01
    0.14727385023146665963E-01
    0.15889960336199535074E-01
    0.36625469248383157699E-02
    0.25025087954094128902E-02
    0.22304606908872693510E-02
    0.59326876988823589593E-02
    0.50472657960346726386E-02
    0.18698122501002814068E-02
    0.18344884662219692380E-02
    0.19750124398488799228E-02
    0.18679088499100921124E-02
    0.33289112228851560141E-02
    0.88170475641255827842E-02
    0.97328789656308881129E-02
    0.10833382816706024765E-01
    0.11156918929303467555E-01
    0.10705850096471644303E-01
    0.96160165524895348244E-02
    0.77245962272199670401E-02
    0.90670332060575342670E-02
    0.86246822083344085869E-02
    0.57760529783282468091E-02
    0.28854558445516962500E-02
    0.24279431106744393462E-02
    0.20973486926461303026E-02
    0.18546400120599828513E-02
    0.18904267438946517794E-02
    0.19120642484797927257E-02
    0.19105229390056850582E-02
    0.18641323876583803382E-02
    0.18275680914911971147E-02
    0.18697155650828562509E-02
    0.23669269707025353787E-02
    0.24283827301226162086E-02
    0.23824321764780755084E-02
    0.22682613806212850727E-02
    0.20791549028723573314E-02
    0.19051678515841924139E-02
    0.18334356758924546475E-02
