# vtk DataFile Version 3.0
LAPLACIEN  2D
ASCII
DATASET UNSTRUCTURED_GRID
 POINTS         391  float
  0.50371505999999999       0.50367786999999997        0.0000000000000000     
  0.29013556000000001       0.29014535000000002        0.0000000000000000     
  0.70165584999999997       0.71206597999999999        0.0000000000000000     
  0.70304188999999995       0.30176619999999998        0.0000000000000000     
  0.30920671999999999       0.71149227999999998        0.0000000000000000     
  0.79044983999999996       0.49884783999999999        0.0000000000000000     
  0.49102621000000002       0.20968644000000000        0.0000000000000000     
  0.49912957000000002       0.77208717000000004        0.0000000000000000     
  0.21724072999999999       0.48989389000000000        0.0000000000000000     
  0.83255933999999998       0.83046598000000005        0.0000000000000000     
  0.16646774000000000       0.17015694000000001        0.0000000000000000     
  0.83054514999999995       0.16736480000000001        0.0000000000000000     
  0.16953130999999999       0.83265739000000005        0.0000000000000000     
  0.42166445000000002       0.36345201999999999        0.0000000000000000     
  0.64462200999999997       0.56347807999999999        0.0000000000000000     
  0.35324633999999999       0.56311191000000005        0.0000000000000000     
  0.65456411000000003       0.84856860999999995        0.0000000000000000     
  0.35141477999999998       0.15563974000000000        0.0000000000000000     
  0.15290967000000000       0.35206625000000003        0.0000000000000000     
  0.82942241000000005       0.34936866000000000        0.0000000000000000     
  0.84390527000000004       0.64441694999999999        0.0000000000000000     
  0.63699174999999997       0.14284276000000001        0.0000000000000000     
  0.15620682999999999       0.64648446999999998        0.0000000000000000     
  0.36426062999999997       0.85756310999999996        0.0000000000000000     
  0.63489340999999999       0.40519052000000000        0.0000000000000000     
  0.52518872999999999       0.65957078000000002        0.0000000000000000     
  0.32158959999999998       0.42298103999999997        0.0000000000000000     
  0.58861710000000000       0.31711036999999997        0.0000000000000000     
  0.42078418000000001       0.69497151999999995        0.0000000000000000     
  0.48608786999999998       0.89334152000000000        0.0000000000000000     
   9.7084320000000002E-002  0.50000000000000000        0.0000000000000000     
  0.90291568000000000       0.50000000000000000        0.0000000000000000     
  0.51392453000000005       0.10668648999999999        0.0000000000000000     
  0.59792566999999996       0.73122754000000001        0.0000000000000000     
  0.74510058999999995       0.41124730999999998        0.0000000000000000     
  0.73212551999999997       0.90191560000000004        0.0000000000000000     
   9.7784830000000003E-002  0.26957329000000002        0.0000000000000000     
  0.26711221000000002        9.8671499999999995E-002   0.0000000000000000     
  0.90191560000000004       0.26787448000000003        0.0000000000000000     
  0.90118569000000004       0.73039821000000005        0.0000000000000000     
  0.73122947000000005        9.8017859999999998E-002   0.0000000000000000     
   9.8084400000000002E-002  0.73212551999999997        0.0000000000000000     
  0.26957329000000002       0.90221516999999996        0.0000000000000000     
  0.39283522999999998       0.25360379000000000        0.0000000000000000     
  0.74480864000000002       0.60495284999999999        0.0000000000000000     
  0.25505132000000003       0.60593640999999998        0.0000000000000000     
  0.52159297999999998       0.40671636000000000        0.0000000000000000     
  0.40768852000000000       0.47699891000000000        0.0000000000000000     
   9.1467049999999994E-002   9.1876959999999994E-002   0.0000000000000000     
  0.90842484999999995       0.90819225000000003        0.0000000000000000     
  0.90820104999999995        9.1566729999999999E-002   0.0000000000000000     
   9.1807449999999999E-002  0.90843574000000005        0.0000000000000000     
  0.27098960000000000       0.20527094000000001        0.0000000000000000     
  0.73457293999999995       0.79835387000000002        0.0000000000000000     
  0.79817773000000003       0.25713470999999999        0.0000000000000000     
  0.20747797000000001       0.72863946000000002        0.0000000000000000     
  0.20175195000000001       0.27583914999999998        0.0000000000000000     
  0.79603889000000005       0.72159035000000005        0.0000000000000000     
  0.71761666000000002       0.19748431999999999        0.0000000000000000     
  0.28462607000000001       0.80251899999999998        0.0000000000000000     
  0.69134598999999997       0.49261972999999998        0.0000000000000000     
  0.44720578999999999       0.58582935999999997        0.0000000000000000     
  0.24242269999999999       0.37228174000000003        0.0000000000000000     
  0.38265623999999998       0.93072131999999996        0.0000000000000000     
  0.60971754000000000       0.91988369000000003        0.0000000000000000     
   7.9163609999999995E-002  0.60979116000000000        0.0000000000000000     
  0.92010649000000000       0.61081183999999999        0.0000000000000000     
  0.61954008999999999        7.1530830000000004E-002   0.0000000000000000     
  0.91882012999999996       0.38917363999999999        0.0000000000000000     
  0.39086346000000000        8.0652249999999995E-002   0.0000000000000000     
   7.9183480000000001E-002  0.38966213000000000        0.0000000000000000     
  0.59114111999999996       0.49294315000000000        0.0000000000000000     
  0.63337980999999999       0.64485914000000000        0.0000000000000000     
  0.50012352000000004       0.29676539000000002        0.0000000000000000     
  0.82552601000000003       0.92753492000000004        0.0000000000000000     
  0.92774772999999999       0.82498556999999995        0.0000000000000000     
   7.1970870000000006E-002  0.17510291000000000        0.0000000000000000     
  0.17422821999999999        7.2635640000000001E-002   0.0000000000000000     
  0.82510813000000005        7.2134840000000006E-002   0.0000000000000000     
  0.92754665000000003       0.17446275999999999        0.0000000000000000     
  0.17501022999999999       0.92789951999999998        0.0000000000000000     
   7.2464680000000004E-002  0.82554053000000005        0.0000000000000000     
  0.30731587999999999       0.50885354999999999        0.0000000000000000     
  0.59033407999999998       0.22171178999999999        0.0000000000000000     
  0.40109191999999999       0.78725542000000004        0.0000000000000000     
  0.35420917000000002       0.63754104000000000        0.0000000000000000     
  0.15983976999999999       0.56665573000000002        0.0000000000000000     
  0.84108459999999996       0.56757886999999996        0.0000000000000000     
  0.83902096000000004       0.43344338999999998        0.0000000000000000     
  0.43230028999999998       0.16004268999999999        0.0000000000000000     
  0.57536027999999995       0.83041363999999995        0.0000000000000000     
  0.15771898000000001       0.42747892999999998        0.0000000000000000     
  0.34021692999999997       0.34221559000000001        0.0000000000000000     
  0.56002271999999997       0.57501117999999996        0.0000000000000000     
  0.65344329000000001       0.78147597999999996        0.0000000000000000     
   0.0000000000000000        0.0000000000000000        0.0000000000000000     
   1.0000000000000000        0.0000000000000000        0.0000000000000000     
   1.0000000000000000        1.0000000000000000        0.0000000000000000     
   0.0000000000000000        1.0000000000000000        0.0000000000000000     
  0.11111111000000000        0.0000000000000000        0.0000000000000000     
  0.22222222000000000        0.0000000000000000        0.0000000000000000     
  0.33333332999999998        0.0000000000000000        0.0000000000000000     
  0.44444444000000000        0.0000000000000000        0.0000000000000000     
  0.55555555999999995        0.0000000000000000        0.0000000000000000     
  0.66666667000000002        0.0000000000000000        0.0000000000000000     
  0.77777777999999997        0.0000000000000000        0.0000000000000000     
  0.88888889000000004        0.0000000000000000        0.0000000000000000     
   1.0000000000000000       0.11111111000000000        0.0000000000000000     
   1.0000000000000000       0.22222222000000000        0.0000000000000000     
   1.0000000000000000       0.33333332999999998        0.0000000000000000     
   1.0000000000000000       0.44444444000000000        0.0000000000000000     
   1.0000000000000000       0.55555555999999995        0.0000000000000000     
   1.0000000000000000       0.66666667000000002        0.0000000000000000     
   1.0000000000000000       0.77777777999999997        0.0000000000000000     
   1.0000000000000000       0.88888889000000004        0.0000000000000000     
  0.88888889000000004        1.0000000000000000        0.0000000000000000     
  0.77777777999999997        1.0000000000000000        0.0000000000000000     
  0.66666667000000002        1.0000000000000000        0.0000000000000000     
  0.55555555999999995        1.0000000000000000        0.0000000000000000     
  0.44444444000000000        1.0000000000000000        0.0000000000000000     
  0.33333332999999998        1.0000000000000000        0.0000000000000000     
  0.22222222000000000        1.0000000000000000        0.0000000000000000     
  0.11111111000000000        1.0000000000000000        0.0000000000000000     
   0.0000000000000000       0.11111111000000000        0.0000000000000000     
   0.0000000000000000       0.22222222000000000        0.0000000000000000     
[...]
 CELL_DATA         354
 SCALARS V float
 LOOKUP_TABLE default
    0.30852694897959991038E-01
    0.40783544709848587595E-01
    0.22327465367064244783E-01
    0.18623371664856929603E-01
    0.33611139748462366683E-01
    0.36268799660828708598E-01
    0.43315636637727736313E-01
    0.39491574281193528306E-01
    0.46981557797797744713E-01
    0.50856377310436358397E-01
    0.58526505545135408537E-01
    0.54339461047308731945E-01
    0.60167565586191566751E-01
    0.59182653635086790445E-01
    0.56938083751511402164E-01
    0.58294507665547674879E-01
    0.54235198403669110379E-01
    0.50200160855828880602E-01
    0.43971232040727982471E-01
    0.46852292908814777150E-01
    0.42663395854861854706E-01
    0.43881831501467245815E-01
    0.47125951567650349594E-01
    0.45332500728550807756E-01
    0.47492471886802209435E-01
    0.46473701129283465083E-01
    0.43925754384152755627E-01
    0.45355681261661631720E-01
    0.41821797668246396551E-01
    0.38795479229391326148E-01
    0.33565254765930883918E-01
    0.36224067604488298378E-01
    0.30996244427609575406E-01
    0.28283426449439697664E-01
    0.24229996691240141687E-01
    0.26042655375431680159E-01
    0.23246260004447683034E-01
    0.23874664979987053615E-01
    0.25944278450671605374E-01
    0.24752229791841905138E-01
    0.26558778222786256357E-01
    0.26677962596079799612E-01
    0.27201977780573163845E-01
    0.26854336283525674645E-01
    0.26795102193629193738E-01
    0.25510763092116878897E-01
    0.24147118975950190856E-01
    0.24719743234525332065E-01
    0.23136500490873755653E-01
    0.21675693250842321957E-01
    0.19678459822733446183E-01
    0.20545057746174232027E-01
    0.31869918377943590171E-01
    0.32403184930689721277E-01
    0.34301466513462948449E-01
    0.33192245874638509617E-01
    0.34494367238969814160E-01
    0.33808696570333897358E-01
    0.32618720310652327132E-01
    0.33221642787685169707E-01
    0.31450354395776272676E-01
    0.29593227119758362675E-01
    0.26407680099646987926E-01
    0.28030622097474887366E-01
    0.24717930698146799856E-01
    0.22792657921279928235E-01
    0.19991493746965748740E-01
    0.21232876021149010848E-01
    0.70507220160356709471E-01
    0.63446424093988026960E-01
    0.59158040344397137822E-01
    0.66782798057858666629E-01
    0.61186838591059979076E-01
    0.61160778809710852899E-01
    0.54716534979259781601E-01
    0.51450334949985347677E-01
    0.53274206818833894084E-01
    0.58824127894267462524E-01
    0.42558008828108652433E-01
    0.45878852731089596328E-01
    0.38695197577858005122E-01
    0.40884981571869705164E-01
    0.46120749853870462998E-01
    0.39849630650619374816E-01
    0.68635122828159214614E-01
    0.79856917639693061894E-01
    0.87686467292054898204E-01
    0.72591817783926662622E-01
    0.70346991945191381101E-01
    0.75330499188357394336E-01
    0.83581350237244445012E-01
    0.40016235867465048404E-01
    0.39020025036228062065E-01
    0.34945361605653917081E-01
    0.34191809165913869539E-01
    0.36502753977155966147E-01
    0.41060586620701902683E-01
    0.51458471771745277479E-01
    0.61398570086713927241E-01
    0.53533837596544772697E-01
    0.59898534078217741117E-01
    0.51206868330508595322E-01
    0.56119203855754945520E-01
    0.72960935365999721181E-01
    0.73611052770379242771E-01
    0.81469741271812792793E-01
    0.81418450189802482608E-01
    0.71551007959028883887E-01
    0.43184566347961354793E-01
    0.40757075043427980210E-01
    0.34327239550287255709E-01
    0.40472652723579242984E-01
    0.36807851251064144238E-01
    0.36418574073491770393E-01
    0.50219971918687413004E-01
    0.39506923004798188970E-01
    0.42760576354826794476E-01
    0.47432150070592933588E-01
    0.47438289588347899717E-01
    0.40125920174635662518E-01
    0.42724569848401512673E-01
    0.30021195772787674649E-01
    0.32703415454511518268E-01
    0.27827345075921310763E-01
    0.33173247324046264972E-01
    0.34789330987595526445E-01
    0.28187348824737164937E-01
    0.29629147128967948943E-01
    0.40237833048038532113E-01
    0.45012420347316881020E-01
    0.38115501927990146080E-01
    0.47236565364168404957E-01
    0.44600022446383356944E-01
    0.38204118573092221700E-01
    0.40813905441577535971E-01
    0.54908266788977158623E-01
    0.59128337688680851492E-01
    0.51015347296619412143E-01
    0.60726708903192649913E-01
    0.63679287909275184010E-01
    0.53925905013308440827E-01
    0.51784049905040471784E-01
    0.26890950336818330441E-01
    0.26080316533233519061E-01
    0.23386300084194629190E-01
    0.29111733479475352532E-01
    0.28662800749367792208E-01
    0.24101172745942672782E-01
    0.24552561024836376535E-01
    0.63365498747721460404E-01
    0.70487091635880710916E-01
    0.74956322073478590107E-01
    0.66445378045036349035E-01
    0.77826461585855100100E-01
    0.65753792327254090289E-01
    0.54583127644707102322E-01
    0.60826111786951693461E-01
    0.62783092349388378017E-01
    0.54010274370193782356E-01
    0.58086678695260671179E-01
    0.45737159843890998201E-01
    0.54869784319898841363E-01
    0.51825979779365635713E-01
    0.50213291921539809914E-01
    0.47166561185784453003E-01
    0.31159349180540345942E-01
    0.34004295166895473490E-01
    0.31111883028921115402E-01
    0.33750439930176186210E-01
    0.35343128927456619881E-01
    0.53142819921541850636E-01
    0.62603974750884874845E-01
    0.55731212071295284372E-01
    0.57160412295405256533E-01
    0.62463020310980263416E-01
    0.40416790440249497629E-01
    0.44519718741677233309E-01
    0.45876683151426365936E-01
    0.39330009952896871628E-01
    0.42038518670889063467E-01
    0.64333091825979363265E-01
    0.56459381469245784047E-01
    0.62686663497449085503E-01
    0.54823624780263410794E-01
    0.58123537966232222129E-01
    0.38268634196042802809E-01
    0.45494053967276557038E-01
    0.40627881405569873929E-01
    0.40861076041212814058E-01
    0.44724886984225220576E-01
    0.70280223214763765105E-01
    0.66346671561665765404E-01
    0.71859928321935939710E-01
    0.66946588608137416743E-01
    0.77233798769105646564E-01
    0.30595613747655077408E-01
    0.36733623205432379411E-01
    0.32988081152078511937E-01
    0.32129194153842695336E-01
    0.35310950936096999198E-01
    0.30352431965652095641E-01
    0.28172097532797632513E-01
    0.30697295048906551862E-01
    0.28400558888853642825E-01
    0.32494460879083017502E-01
    0.86761460213745505987E-01
    0.73172788807311511805E-01
    0.79861163565745518778E-01
    0.70993845196934024511E-01
    0.73443181283586997377E-01
    0.45561081164474916128E-01
    0.45081450331975601864E-01
    0.50751091435677672670E-01
    0.49253700594441188199E-01
    0.52819072356268467749E-01
    0.59133270879158698896E-01
    0.53199186320519786797E-01
    0.53236474708971817660E-01
    0.59202057665917871832E-01
    0.87327233998104422663E-01
    0.91133019700887205050E-01
    0.91517319764940041615E-01
    0.47684767544504305659E-01
    0.38873450787652447103E-01
    0.43815681084689424296E-01
    0.28177777094053099716E-01
    0.29528567275752676258E-01
    0.33016638482299180690E-01
    0.32553152501043340628E-01
    0.32898480732327893550E-01
    0.35702987330121983833E-01
    0.36270855992664947920E-01
    0.38571560246757008450E-01
    0.43138081630453649351E-01
    0.48319275090875676848E-01
    0.47226413711036856202E-01
    0.51606049090664768420E-01
    0.64758537232047150289E-01
    0.61009557730255001284E-01
    0.76021307035336105340E-01
    0.66769279967129807618E-01
    0.45915505954199895000E-01
    0.38337274312182728631E-01
    0.39740463844797999093E-01
    0.66088710647875262283E-01
    0.60985715452022123961E-01
    0.32038394255010135825E-01
    0.28890470521814370919E-01
    0.27382112872115869223E-01
    0.42420331495444836556E-01
    0.37086879697870077377E-01
    0.36590205010369067362E-01
    0.50029483148636880174E-01
    0.51894956404630161739E-01
    0.43025982019963986136E-01
    0.58374735483259873603E-01
    0.51199122791375367703E-01
    0.50062657286632977760E-01
    0.36455235547519247719E-01
    0.37054001891371785016E-01
    0.30960675380129538958E-01
    0.65584343418519541746E-01
    0.62005986797578079017E-01
    0.55362585098747925383E-01
    0.29751370211878402916E-01
    0.29156524326909419309E-01
    0.25102073288100164306E-01
    0.28420529920486353737E-01
    0.26282995158513323963E-01
    0.23993651470649808577E-01
    0.59634160353432212609E-01
    0.76498638557059156495E-01
    0.67654436712412849286E-01
    0.64754190202514147479E-01
    0.43961312501791728613E-01
    0.57045586095700720475E-01
    0.50043705437346278075E-01
    0.48805104536288404504E-01
    0.36315245056572180438E-01
    0.45857046625168797205E-01
    0.42863348523409706969E-01
    0.38957524712372806897E-01
    0.69540457478646663936E-01
    0.73367990547292982750E-01
    0.83042158443258434763E-01
    0.57268152934887128769E-01
    0.55259774053428661889E-01
    0.34982170139337853687E-01
    0.37076644887374207715E-01
    0.25636335739787366461E-01
    0.26799823541360873191E-01
    0.48734958651188348133E-01
    0.47076317375153116374E-01
    0.21797854771301531512E-01
    0.22165617328614405090E-01
    0.49552463068287755377E-01
    0.36925834891925329861E-01
    0.36694125691417084356E-01
    0.67701530446131474861E-01
    0.31647313548345150369E-01
    0.48663867969656049439E-01
    0.78427365519387642889E-01
    0.33404254166564506523E-01
    0.66596343062593793549E-01
    0.48393958351717253352E-01
    0.55724527182523610203E-01
    0.45336867260007539249E-01
    0.55867730228627066058E-01
    0.31729473134624985864E-01
    0.33945617877567925424E-01
    0.43713146715268810794E-01
    0.52900388925758823344E-01
    0.61584399755819071998E-01
    0.38771192432949491691E-01
    0.62637035478468272576E-01
    0.53675382871717761124E-01
    0.87603168138262077491E-01
    0.36423259650534785259E-01
    0.30331077011855174519E-01
    0.28813816804448562359E-01
    0.39503825280728134539E-01
    0.38382216541793176545E-01
    0.21815082460359066369E-01
    0.20953566614637181287E-01
    0.17673323057353002019E-01
    0.17948122181098969535E-01
    0.36351670749623025969E-01
    0.43087074579040735012E-01
    0.49506981143431841308E-01
    0.54381168614632095781E-01
    0.54956535310625623247E-01
    0.51968353406482224732E-01
    0.45992153245151941310E-01
    0.41751890809344972821E-01
    0.43612500127016166906E-01
    0.42744482404678485477E-01
    0.39906038588646379484E-01
    0.35496663480390995560E-01
    0.30724423006975424416E-01
    0.25986157737494332276E-01
    0.22787065295171583801E-01
    0.24283753096888391343E-01
    0.24884915395360623219E-01
    0.24800370238367161480E-01
    0.23627753394894999983E-01
    0.22047299089083781387E-01
    0.19879469113570406857E-01
    0.30685721774471715062E-01
    0.31725928514560068627E-01
    0.31227449461414230614E-01
    0.29695394992202500672E-01
    0.27088278417648690294E-01
    0.24100240108699995389E-01
    0.20899133518365170525E-01
