# vtk DataFile Version 3.0
LAPLACIEN  2D
ASCII
DATASET UNSTRUCTURED_GRID
 POINTS         391  float
  0.50371505999999999       0.50367786999999997        0.0000000000000000     
  0.29013556000000001       0.29014535000000002        0.0000000000000000     
  0.70165584999999997       0.71206597999999999        0.0000000000000000     
  0.70304188999999995       0.30176619999999998        0.0000000000000000     
  0.30920671999999999       0.71149227999999998        0.0000000000000000     
  0.79044983999999996       0.49884783999999999        0.0000000000000000     
  0.49102621000000002       0.20968644000000000        0.0000000000000000     
  0.49912957000000002       0.77208717000000004        0.0000000000000000     
  0.21724072999999999       0.48989389000000000        0.0000000000000000     
  0.83255933999999998       0.83046598000000005        0.0000000000000000     
  0.16646774000000000       0.17015694000000001        0.0000000000000000     
  0.83054514999999995       0.16736480000000001        0.0000000000000000     
  0.16953130999999999       0.83265739000000005        0.0000000000000000     
  0.42166445000000002       0.36345201999999999        0.0000000000000000     
  0.64462200999999997       0.56347807999999999        0.0000000000000000     
  0.35324633999999999       0.56311191000000005        0.0000000000000000     
  0.65456411000000003       0.84856860999999995        0.0000000000000000     
  0.35141477999999998       0.15563974000000000        0.0000000000000000     
  0.15290967000000000       0.35206625000000003        0.0000000000000000     
  0.82942241000000005       0.34936866000000000        0.0000000000000000     
  0.84390527000000004       0.64441694999999999        0.0000000000000000     
  0.63699174999999997       0.14284276000000001        0.0000000000000000     
  0.15620682999999999       0.64648446999999998        0.0000000000000000     
  0.36426062999999997       0.85756310999999996        0.0000000000000000     
  0.63489340999999999       0.40519052000000000        0.0000000000000000     
  0.52518872999999999       0.65957078000000002        0.0000000000000000     
  0.32158959999999998       0.42298103999999997        0.0000000000000000     
  0.58861710000000000       0.31711036999999997        0.0000000000000000     
  0.42078418000000001       0.69497151999999995        0.0000000000000000     
  0.48608786999999998       0.89334152000000000        0.0000000000000000     
   9.7084320000000002E-002  0.50000000000000000        0.0000000000000000     
  0.90291568000000000       0.50000000000000000        0.0000000000000000     
  0.51392453000000005       0.10668648999999999        0.0000000000000000     
  0.59792566999999996       0.73122754000000001        0.0000000000000000     
  0.74510058999999995       0.41124730999999998        0.0000000000000000     
  0.73212551999999997       0.90191560000000004        0.0000000000000000     
   9.7784830000000003E-002  0.26957329000000002        0.0000000000000000     
  0.26711221000000002        9.8671499999999995E-002   0.0000000000000000     
  0.90191560000000004       0.26787448000000003        0.0000000000000000     
  0.90118569000000004       0.73039821000000005        0.0000000000000000     
  0.73122947000000005        9.8017859999999998E-002   0.0000000000000000     
   9.8084400000000002E-002  0.73212551999999997        0.0000000000000000     
  0.26957329000000002       0.90221516999999996        0.0000000000000000     
  0.39283522999999998       0.25360379000000000        0.0000000000000000     
  0.74480864000000002       0.60495284999999999        0.0000000000000000     
  0.25505132000000003       0.60593640999999998        0.0000000000000000     
  0.52159297999999998       0.40671636000000000        0.0000000000000000     
  0.40768852000000000       0.47699891000000000        0.0000000000000000     
   9.1467049999999994E-002   9.1876959999999994E-002   0.0000000000000000     
  0.90842484999999995       0.90819225000000003        0.0000000000000000     
  0.90820104999999995        9.1566729999999999E-002   0.0000000000000000     
   9.1807449999999999E-002  0.90843574000000005        0.0000000000000000     
  0.27098960000000000       0.20527094000000001        0.0000000000000000     
  0.73457293999999995       0.79835387000000002        0.0000000000000000     
  0.79817773000000003       0.25713470999999999        0.0000000000000000     
  0.20747797000000001       0.72863946000000002        0.0000000000000000     
  0.20175195000000001       0.27583914999999998        0.0000000000000000     
  0.79603889000000005       0.72159035000000005        0.0000000000000000     
  0.71761666000000002       0.19748431999999999        0.0000000000000000     
  0.28462607000000001       0.80251899999999998        0.0000000000000000     
  0.69134598999999997       0.49261972999999998        0.0000000000000000     
  0.44720578999999999       0.58582935999999997        0.0000000000000000     
  0.24242269999999999       0.37228174000000003        0.0000000000000000     
  0.38265623999999998       0.93072131999999996        0.0000000000000000     
  0.60971754000000000       0.91988369000000003        0.0000000000000000     
   7.9163609999999995E-002  0.60979116000000000        0.0000000000000000     
  0.92010649000000000       0.61081183999999999        0.0000000000000000     
  0.61954008999999999        7.1530830000000004E-002   0.0000000000000000     
  0.91882012999999996       0.38917363999999999        0.0000000000000000     
  0.39086346000000000        8.0652249999999995E-002   0.0000000000000000     
   7.9183480000000001E-002  0.38966213000000000        0.0000000000000000     
  0.59114111999999996       0.49294315000000000        0.0000000000000000     
  0.63337980999999999       0.64485914000000000        0.0000000000000000     
  0.50012352000000004       0.29676539000000002        0.0000000000000000     
  0.82552601000000003       0.92753492000000004        0.0000000000000000     
  0.92774772999999999       0.82498556999999995        0.0000000000000000     
   7.1970870000000006E-002  0.17510291000000000        0.0000000000000000     
  0.17422821999999999        7.2635640000000001E-002   0.0000000000000000     
  0.82510813000000005        7.2134840000000006E-002   0.0000000000000000     
  0.92754665000000003       0.17446275999999999        0.0000000000000000     
  0.17501022999999999       0.92789951999999998        0.0000000000000000     
   7.2464680000000004E-002  0.82554053000000005        0.0000000000000000     
  0.30731587999999999       0.50885354999999999        0.0000000000000000     
  0.59033407999999998       0.22171178999999999        0.0000000000000000     
  0.40109191999999999       0.78725542000000004        0.0000000000000000     
  0.35420917000000002       0.63754104000000000        0.0000000000000000     
  0.15983976999999999       0.56665573000000002        0.0000000000000000     
  0.84108459999999996       0.56757886999999996        0.0000000000000000     
  0.83902096000000004       0.43344338999999998        0.0000000000000000     
  0.43230028999999998       0.16004268999999999        0.0000000000000000     
  0.57536027999999995       0.83041363999999995        0.0000000000000000     
  0.15771898000000001       0.42747892999999998        0.0000000000000000     
  0.34021692999999997       0.34221559000000001        0.0000000000000000     
  0.56002271999999997       0.57501117999999996        0.0000000000000000     
  0.65344329000000001       0.78147597999999996        0.0000000000000000     
   0.0000000000000000        0.0000000000000000        0.0000000000000000     
   1.0000000000000000        0.0000000000000000        0.0000000000000000     
   1.0000000000000000        1.0000000000000000        0.0000000000000000     
   0.0000000000000000        1.0000000000000000        0.0000000000000000     
  0.11111111000000000        0.0000000000000000        0.0000000000000000     
  0.22222222000000000        0.0000000000000000        0.0000000000000000     
  0.33333332999999998        0.0000000000000000        0.0000000000000000     
  0.44444444000000000        0.0000000000000000        0.0000000000000000     
  0.55555555999999995        0.0000000000000000        0.0000000000000000     
  0.66666667000000002        0.0000000000000000        0.0000000000000000     
  0.77777777999999997        0.0000000000000000        0.0000000000000000     
  0.88888889000000004        0.0000000000000000        0.0000000000000000     
   1.0000000000000000       0.11111111000000000        0.0000000000000000     
   1.0000000000000000       0.22222222000000000        0.0000000000000000     
   1.0000000000000000       0.33333332999999998        0.0000000000000000     
   1.0000000000000000       0.44444444000000000        0.0000000000000000     
   1.0000000000000000       0.55555555999999995        0.0000000000000000     
   1.0000000000000000       0.66666667000000002        0.0000000000000000     
   1.0000000000000000       0.77777777999999997        0.0000000000000000     
   1.0000000000000000       0.88888889000000004        0.0000000000000000     
  0.88888889000000004        1.0000000000000000        0.0000000000000000     
  0.77777777999999997        1.0000000000000000        0.0000000000000000     
  0.66666667000000002        1.0000000000000000        0.0000000000000000     
  0.55555555999999995        1.0000000000000000        0.0000000000000000     
  0.44444444000000000        1.0000000000000000        0.0000000000000000     
  0.33333332999999998        1.0000000000000000        0.0000000000000000     
  0.22222222000000000        1.0000000000000000        0.0000000000000000     
  0.11111111000000000        1.0000000000000000        0.0000000000000000     
   0.0000000000000000       0.11111111000000000        0.0000000000000000     
   0.0000000000000000       0.22222222000000000        0.0000000000000000     
[...]
 CELL_DATA         354
 SCALARS V float
 LOOKUP_TABLE default
    0.30852818446374948025E-01
    0.40783709796851169704E-01
    0.22327557751476462267E-01
    0.18623451641265966611E-01
    0.33611159204552272517E-01
    0.36268856748574856974E-01
    0.43315801229264622174E-01
    0.39491674304077725721E-01
    0.46981727887578803027E-01
    0.50856526835079865489E-01
    0.58526749893962955185E-01
    0.54339680139797140457E-01
    0.60167742771470147933E-01
    0.59182858627070199231E-01
    0.56938309675857015635E-01
    0.58294736763541611657E-01
    0.54235397502310933593E-01
    0.50200297494650825136E-01
    0.43971281315044255522E-01
    0.46852384472524599701E-01
    0.42663504640167985993E-01
    0.43881946708923563749E-01
    0.47126120229918036508E-01
    0.45332648534278083274E-01
    0.47492705468872672969E-01
    0.46473913698517263504E-01
    0.43925910721848079876E-01
    0.45355842339880721170E-01
    0.41821967843203571025E-01
    0.38795621595283193150E-01
    0.33565374704490606728E-01
    0.36224178942149756755E-01
    0.30996368268790833178E-01
    0.28283508232617181333E-01
    0.24230021590131118475E-01
    0.26042702939052184141E-01
    0.23246331708616500833E-01
    0.23874733951396078652E-01
    0.25944386521582041283E-01
    0.24752320126179425813E-01
    0.26558921266723139326E-01
    0.26678092458331106179E-01
    0.27202124997776258586E-01
    0.26854463940930519555E-01
    0.26795225653758067419E-01
    0.25510872060700351405E-01
    0.24147236550184782156E-01
    0.24719861066866820332E-01
    0.23136601607135681702E-01
    0.21675771326385089022E-01
    0.19678510079215366657E-01
    0.20545112838746951156E-01
    0.31870023496160443388E-01
    0.32403280002369382051E-01
    0.34301600996766101748E-01
    0.33192367021793865722E-01
    0.34494546579855706048E-01
    0.33808858458362907318E-01
    0.32618852446236135112E-01
    0.33221772431102906953E-01
    0.31450493603603475734E-01
    0.29593346155217387095E-01
    0.26407800346637790023E-01
    0.28030730917968850469E-01
    0.24718035979663974255E-01
    0.22792731081666767201E-01
    0.19991527936622819489E-01
    0.21232923770869681357E-01
    0.70507246889272776058E-01
    0.63446387578418986242E-01
    0.59157889867800544925E-01
    0.66782799152513672158E-01
    0.61186714824721363803E-01
    0.61160845994587063890E-01
    0.54716548342276967454E-01
    0.51450261113240136623E-01
    0.53274108054909320720E-01
    0.58824070791235263944E-01
    0.42558069963558861626E-01
    0.45878920477386113397E-01
    0.38695192062384864418E-01
    0.40885011724759244556E-01
    0.46120739895776544093E-01
    0.39849731466336149599E-01
    0.68635073717478012334E-01
    0.79856626125995616716E-01
    0.87685511189425482947E-01
    0.72591770952971715336E-01
    0.70346920511912158780E-01
    0.75330514637683726464E-01
    0.83580850319659436010E-01
    0.40016145672762140628E-01
    0.39019983766257627933E-01
    0.34945351683979525292E-01
    0.34191815078519122162E-01
    0.36502746351208099906E-01
    0.41060478941969666411E-01
    0.51458417783568279058E-01
    0.61398573155206546959E-01
    0.53533837949635273978E-01
    0.59898450335735528571E-01
    0.51206963911995168059E-01
    0.56119137554926409872E-01
    0.72960779054751831452E-01
    0.73610875740253253752E-01
    0.81469611737922317807E-01
    0.81418354303101153624E-01
    0.71551002707570629524E-01
    0.43184546661235924392E-01
    0.40757099317911583969E-01
    0.34327155612742354940E-01
    0.40472669764039223561E-01
    0.36807812642667386838E-01
    0.36418588043119468067E-01
    0.50219864577030537411E-01
    0.39506897641306923386E-01
    0.42760570035045172843E-01
    0.47432176422548273653E-01
    0.47438204772347038196E-01
    0.40126023579687863929E-01
    0.42724621916367853947E-01
    0.30021216882337123377E-01
    0.32703446786237308497E-01
    0.27827368681867595268E-01
    0.33173196150241494873E-01
    0.34789295015851831594E-01
    0.28187434769223328190E-01
    0.29629212401487980272E-01
    0.40237877150162519591E-01
    0.45012447841298521001E-01
    0.38115532280486648375E-01
    0.47236480730665844630E-01
    0.44599966587766076698E-01
    0.38204212688730511405E-01
    0.40813990076131109741E-01
    0.54908256610919768670E-01
    0.59128349989542985932E-01
    0.51015365906931856022E-01
    0.60726575038467137113E-01
    0.63679170589291109184E-01
    0.53926009689070131259E-01
    0.51784180667064944048E-01
    0.26890987454779125693E-01
    0.26080359632308997703E-01
    0.23386324147965521780E-01
    0.29111700527157044482E-01
    0.28662779019839764588E-01
    0.24101241513419840307E-01
    0.24552631217040876699E-01
    0.63365505116083076231E-01
    0.70487063765330718046E-01
    0.74956163561241434534E-01
    0.66445311155686762050E-01
    0.77826290693275276822E-01
    0.65753833403233222232E-01
    0.54582971600029707437E-01
    0.60826065549938510002E-01
    0.62783127881891928612E-01
    0.54010160796568097707E-01
    0.58086612416205704590E-01
    0.45737023051140843211E-01
    0.54869895711775876213E-01
    0.51826024767210619737E-01
    0.50213255242954502044E-01
    0.47166525901348337058E-01
    0.31159262609022898155E-01
    0.34004254556909113694E-01
    0.31111777344451006094E-01
    0.33750459324510262427E-01
    0.35343131568644284290E-01
    0.53142644950582122731E-01
    0.62603944637094260939E-01
    0.55731161444156719631E-01
    0.57160245066133257008E-01
    0.62462997866686326143E-01
    0.40416690102660489392E-01
    0.44519730615850683364E-01
    0.45876745119147382956E-01
    0.39329900094895252349E-01
    0.42038521851395380113E-01
    0.64333120566657325812E-01
    0.56459265006157582922E-01
    0.62686624271858892854E-01
    0.54823505355057158828E-01
    0.58123549519003940567E-01
    0.38268525156443744528E-01
    0.45494091157813838777E-01
    0.40627882675845626570E-01
    0.40860979681773615391E-01
    0.44724906201739536571E-01
    0.70280215675796037234E-01
    0.66346496886961245365E-01
    0.71859896305572310005E-01
    0.66946603649572611339E-01
    0.77233609200591274435E-01
    0.30595532207579292233E-01
    0.36733675878998159336E-01
    0.32988106849795473252E-01
    0.32129115676475875074E-01
    0.35310970139468898787E-01
    0.30352524914960196667E-01
    0.28172047857012650490E-01
    0.30697335854886962508E-01
    0.28400594499101334406E-01
    0.32494517697825728297E-01
    0.86760846659252571778E-01
    0.73172785709980661673E-01
    0.79860929967988061873E-01
    0.70993767229221294013E-01
    0.73443117143576902572E-01
    0.45561054605334605494E-01
    0.45081473800878679725E-01
    0.50751096650563050361E-01
    0.49253679415238782457E-01
    0.52819046446288722696E-01
    0.59133306849101702207E-01
    0.53199063790859361933E-01
    0.53236457942086277961E-01
    0.59201996826421396380E-01
    0.87326546628909373915E-01
    0.91131940659510066172E-01
    0.91516030844058349203E-01
    0.47684783428840714359E-01
    0.38873455525992264836E-01
    0.43815664625414738054E-01
    0.28177870976227464145E-01
    0.29528547368383024213E-01
    0.33016581822327806250E-01
    0.32553092867189784010E-01
    0.32898458479839687296E-01
    0.35702940687788460583E-01
    0.36270853914185212374E-01
    0.38571448548184089633E-01
    0.43138049000064890293E-01
    0.48319203575908360737E-01
    0.47226401915933302611E-01
    0.51605879873179064110E-01
    0.64758679929523388363E-01
    0.61009471624774588849E-01
    0.76020957711460571127E-01
    0.66769138166699576464E-01
    0.45915498106841395876E-01
    0.38337276050148069717E-01
    0.39740529378498409829E-01
    0.66088677965688222282E-01
    0.60985800976127324535E-01
    0.32038350228462776637E-01
    0.28890413237498469012E-01
    0.27382181089572191907E-01
    0.42420285553710496140E-01
    0.37086835244548373158E-01
    0.36590274584416590531E-01
    0.50029399570910737527E-01
    0.51894809947101327996E-01
    0.43026085992603158026E-01
    0.58374574753154440110E-01
    0.51199097192985723592E-01
    0.50062757842929489493E-01
    0.36455182953871130558E-01
    0.37053914570979937237E-01
    0.30960762052794486843E-01
    0.65584204072737559144E-01
    0.62005855210933200072E-01
    0.55362706164647182416E-01
    0.29751334971595946866E-01
    0.29156467587194263846E-01
    0.25102146282047359954E-01
    0.28420512557583599289E-01
    0.26282967001509512095E-01
    0.23993718849546926547E-01
    0.59634198583998654364E-01
    0.76498333946971905362E-01
    0.67654428707671410148E-01
    0.64754263800744990554E-01
    0.43961367525566466541E-01
    0.57045444645098489223E-01
    0.50043666523753090047E-01
    0.48805173345082560055E-01
    0.36315289142533409283E-01
    0.45856875387276757605E-01
    0.42863267497685889063E-01
    0.38957607050793929826E-01
    0.69540358681571809440E-01
    0.73368003514769589146E-01
    0.83041738059923458914E-01
    0.57268138455108030804E-01
    0.55259847201426549879E-01
    0.34982180938407707316E-01
    0.37076644441798659035E-01
    0.25636347524787207047E-01
    0.26799824508161970704E-01
    0.48734939078044624272E-01
    0.47076315479603676739E-01
    0.21797862317887512634E-01
    0.22165624177399402550E-01
    0.49552383111513192970E-01
    0.36925813853490786764E-01
    0.36694092458462508610E-01
    0.67701449606108868307E-01
    0.31647288344725008069E-01
    0.48663870859550380221E-01
    0.78427418921608635372E-01
    0.33404320432056745782E-01
    0.66596331274155484703E-01
    0.48394002825948537194E-01
    0.55724460689265384317E-01
    0.45337006022845897923E-01
    0.55867631380306100042E-01
    0.31729409072102483791E-01
    0.33945573384065140521E-01
    0.43713090593550114893E-01
    0.52900275303142160754E-01
    0.61584248460049562102E-01
    0.38771113889165070843E-01
    0.62636991991861665219E-01
    0.53675279480261239851E-01
    0.87602599764837571494E-01
    0.36423263785275841742E-01
    0.30331137649591458083E-01
    0.28813983514059463009E-01
    0.39503943167585847673E-01
    0.38382411514658848484E-01
    0.21815136376899201681E-01
    0.20953681472312746248E-01
    0.17673405741922370432E-01
    0.17948185517977249814E-01
    0.36351771447983245722E-01
    0.43087297089725154486E-01
    0.49507236768403670157E-01
    0.54381468769574302369E-01
    0.54956868711045554765E-01
    0.51968658342151197171E-01
    0.45992329628421840804E-01
    0.41752114859429215188E-01
    0.43612775322873872930E-01
    0.42744745764785964381E-01
    0.39906267401117134774E-01
    0.35496846481362559489E-01
    0.30724580586853206254E-01
    0.25986236712718616126E-01
    0.22787189841334654083E-01
    0.24283915154212749876E-01
    0.24885081723308277724E-01
    0.24800542731567898347E-01
    0.23627905151095269370E-01
    0.22047440199117383786E-01
    0.19879565488068316748E-01
    0.30685897292262391545E-01
    0.31726134822343009245E-01
    0.31227649348760100345E-01
    0.29695577795313045366E-01
    0.27088433802951870227E-01
    0.24100382755719632760E-01
    0.20899215751414065151E-01
