# vtk DataFile Version 3.0
LAPLACIEN  2D
ASCII
DATASET UNSTRUCTURED_GRID
 POINTS         391  float
  0.50371505999999999       0.50367786999999997        0.0000000000000000     
  0.29013556000000001       0.29014535000000002        0.0000000000000000     
  0.70165584999999997       0.71206597999999999        0.0000000000000000     
  0.70304188999999995       0.30176619999999998        0.0000000000000000     
  0.30920671999999999       0.71149227999999998        0.0000000000000000     
  0.79044983999999996       0.49884783999999999        0.0000000000000000     
  0.49102621000000002       0.20968644000000000        0.0000000000000000     
  0.49912957000000002       0.77208717000000004        0.0000000000000000     
  0.21724072999999999       0.48989389000000000        0.0000000000000000     
  0.83255933999999998       0.83046598000000005        0.0000000000000000     
  0.16646774000000000       0.17015694000000001        0.0000000000000000     
  0.83054514999999995       0.16736480000000001        0.0000000000000000     
  0.16953130999999999       0.83265739000000005        0.0000000000000000     
  0.42166445000000002       0.36345201999999999        0.0000000000000000     
  0.64462200999999997       0.56347807999999999        0.0000000000000000     
  0.35324633999999999       0.56311191000000005        0.0000000000000000     
  0.65456411000000003       0.84856860999999995        0.0000000000000000     
  0.35141477999999998       0.15563974000000000        0.0000000000000000     
  0.15290967000000000       0.35206625000000003        0.0000000000000000     
  0.82942241000000005       0.34936866000000000        0.0000000000000000     
  0.84390527000000004       0.64441694999999999        0.0000000000000000     
  0.63699174999999997       0.14284276000000001        0.0000000000000000     
  0.15620682999999999       0.64648446999999998        0.0000000000000000     
  0.36426062999999997       0.85756310999999996        0.0000000000000000     
  0.63489340999999999       0.40519052000000000        0.0000000000000000     
  0.52518872999999999       0.65957078000000002        0.0000000000000000     
  0.32158959999999998       0.42298103999999997        0.0000000000000000     
  0.58861710000000000       0.31711036999999997        0.0000000000000000     
  0.42078418000000001       0.69497151999999995        0.0000000000000000     
  0.48608786999999998       0.89334152000000000        0.0000000000000000     
   9.7084320000000002E-002  0.50000000000000000        0.0000000000000000     
  0.90291568000000000       0.50000000000000000        0.0000000000000000     
  0.51392453000000005       0.10668648999999999        0.0000000000000000     
  0.59792566999999996       0.73122754000000001        0.0000000000000000     
  0.74510058999999995       0.41124730999999998        0.0000000000000000     
  0.73212551999999997       0.90191560000000004        0.0000000000000000     
   9.7784830000000003E-002  0.26957329000000002        0.0000000000000000     
  0.26711221000000002        9.8671499999999995E-002   0.0000000000000000     
  0.90191560000000004       0.26787448000000003        0.0000000000000000     
  0.90118569000000004       0.73039821000000005        0.0000000000000000     
  0.73122947000000005        9.8017859999999998E-002   0.0000000000000000     
   9.8084400000000002E-002  0.73212551999999997        0.0000000000000000     
  0.26957329000000002       0.90221516999999996        0.0000000000000000     
  0.39283522999999998       0.25360379000000000        0.0000000000000000     
  0.74480864000000002       0.60495284999999999        0.0000000000000000     
  0.25505132000000003       0.60593640999999998        0.0000000000000000     
  0.52159297999999998       0.40671636000000000        0.0000000000000000     
  0.40768852000000000       0.47699891000000000        0.0000000000000000     
   9.1467049999999994E-002   9.1876959999999994E-002   0.0000000000000000     
  0.90842484999999995       0.90819225000000003        0.0000000000000000     
  0.90820104999999995        9.1566729999999999E-002   0.0000000000000000     
   9.1807449999999999E-002  0.90843574000000005        0.0000000000000000     
  0.27098960000000000       0.20527094000000001        0.0000000000000000     
  0.73457293999999995       0.79835387000000002        0.0000000000000000     
  0.79817773000000003       0.25713470999999999        0.0000000000000000     
  0.20747797000000001       0.72863946000000002        0.0000000000000000     
  0.20175195000000001       0.27583914999999998        0.0000000000000000     
  0.79603889000000005       0.72159035000000005        0.0000000000000000     
  0.71761666000000002       0.19748431999999999        0.0000000000000000     
  0.28462607000000001       0.80251899999999998        0.0000000000000000     
  0.69134598999999997       0.49261972999999998        0.0000000000000000     
  0.44720578999999999       0.58582935999999997        0.0000000000000000     
  0.24242269999999999       0.37228174000000003        0.0000000000000000     
  0.38265623999999998       0.93072131999999996        0.0000000000000000     
  0.60971754000000000       0.91988369000000003        0.0000000000000000     
   7.9163609999999995E-002  0.60979116000000000        0.0000000000000000     
  0.92010649000000000       0.61081183999999999        0.0000000000000000     
  0.61954008999999999        7.1530830000000004E-002   0.0000000000000000     
  0.91882012999999996       0.38917363999999999        0.0000000000000000     
  0.39086346000000000        8.0652249999999995E-002   0.0000000000000000     
   7.9183480000000001E-002  0.38966213000000000        0.0000000000000000     
  0.59114111999999996       0.49294315000000000        0.0000000000000000     
  0.63337980999999999       0.64485914000000000        0.0000000000000000     
  0.50012352000000004       0.29676539000000002        0.0000000000000000     
  0.82552601000000003       0.92753492000000004        0.0000000000000000     
  0.92774772999999999       0.82498556999999995        0.0000000000000000     
   7.1970870000000006E-002  0.17510291000000000        0.0000000000000000     
  0.17422821999999999        7.2635640000000001E-002   0.0000000000000000     
  0.82510813000000005        7.2134840000000006E-002   0.0000000000000000     
  0.92754665000000003       0.17446275999999999        0.0000000000000000     
  0.17501022999999999       0.92789951999999998        0.0000000000000000     
   7.2464680000000004E-002  0.82554053000000005        0.0000000000000000     
  0.30731587999999999       0.50885354999999999        0.0000000000000000     
  0.59033407999999998       0.22171178999999999        0.0000000000000000     
  0.40109191999999999       0.78725542000000004        0.0000000000000000     
  0.35420917000000002       0.63754104000000000        0.0000000000000000     
  0.15983976999999999       0.56665573000000002        0.0000000000000000     
  0.84108459999999996       0.56757886999999996        0.0000000000000000     
  0.83902096000000004       0.43344338999999998        0.0000000000000000     
  0.43230028999999998       0.16004268999999999        0.0000000000000000     
  0.57536027999999995       0.83041363999999995        0.0000000000000000     
  0.15771898000000001       0.42747892999999998        0.0000000000000000     
  0.34021692999999997       0.34221559000000001        0.0000000000000000     
  0.56002271999999997       0.57501117999999996        0.0000000000000000     
  0.65344329000000001       0.78147597999999996        0.0000000000000000     
   0.0000000000000000        0.0000000000000000        0.0000000000000000     
   1.0000000000000000        0.0000000000000000        0.0000000000000000     
   1.0000000000000000        1.0000000000000000        0.0000000000000000     
   0.0000000000000000        1.0000000000000000        0.0000000000000000     
  0.11111111000000000        0.0000000000000000        0.0000000000000000     
  0.22222222000000000        0.0000000000000000        0.0000000000000000     
  0.33333332999999998        0.0000000000000000        0.0000000000000000     
  0.44444444000000000        0.0000000000000000        0.0000000000000000     
  0.55555555999999995        0.0000000000000000        0.0000000000000000     
  0.66666667000000002        0.0000000000000000        0.0000000000000000     
  0.77777777999999997        0.0000000000000000        0.0000000000000000     
  0.88888889000000004        0.0000000000000000        0.0000000000000000     
   1.0000000000000000       0.11111111000000000        0.0000000000000000     
   1.0000000000000000       0.22222222000000000        0.0000000000000000     
   1.0000000000000000       0.33333332999999998        0.0000000000000000     
   1.0000000000000000       0.44444444000000000        0.0000000000000000     
   1.0000000000000000       0.55555555999999995        0.0000000000000000     
   1.0000000000000000       0.66666667000000002        0.0000000000000000     
   1.0000000000000000       0.77777777999999997        0.0000000000000000     
   1.0000000000000000       0.88888889000000004        0.0000000000000000     
  0.88888889000000004        1.0000000000000000        0.0000000000000000     
  0.77777777999999997        1.0000000000000000        0.0000000000000000     
  0.66666667000000002        1.0000000000000000        0.0000000000000000     
  0.55555555999999995        1.0000000000000000        0.0000000000000000     
  0.44444444000000000        1.0000000000000000        0.0000000000000000     
  0.33333332999999998        1.0000000000000000        0.0000000000000000     
  0.22222222000000000        1.0000000000000000        0.0000000000000000     
  0.11111111000000000        1.0000000000000000        0.0000000000000000     
   0.0000000000000000       0.11111111000000000        0.0000000000000000     
   0.0000000000000000       0.22222222000000000        0.0000000000000000     
[...]
 CELL_DATA         354
 SCALARS V float
 LOOKUP_TABLE default
    0.24099598235084629567E-02
    0.74620401293491334799E-02
    0.18189154600627862029E-02
    0.18437106030765820861E-02
    0.27820265591252829086E-02
    0.32729982112714751941E-02
    0.12153669656006723526E-01
    0.72160638176667823637E-02
    0.13864583715339526965E-01
    0.14929344201580600077E-01
    0.17340430687217876782E-01
    0.16324702091056242370E-01
    0.17611026980709959533E-01
    0.17807118752926412442E-01
    0.17488097267384976330E-01
    0.17809884539600515097E-01
    0.16941550889755109532E-01
    0.15582635042537380798E-01
    0.11151937865659038163E-01
    0.14319881963996302504E-01
    0.96033657123685400164E-02
    0.11602576178921904931E-01
    0.13594150444096265995E-01
    0.12388342555295212694E-01
    0.13742615630061157453E-01
    0.13354590135659141423E-01
    0.10005746718166595027E-01
    0.12485060150273440474E-01
    0.73646411547723562852E-02
    0.52280613338980862562E-02
    0.26590504296095667132E-02
    0.30238477319829131645E-02
    0.24471071008102247661E-02
    0.21688339622359599675E-02
    0.18888271126679344845E-02
    0.20193027159556373867E-02
    0.18496208048219403824E-02
    0.18554301742446637630E-02
    0.19762883924248166902E-02
    0.18881724425679089971E-02
    0.19848047448992700396E-02
    0.20026718973694809453E-02
    0.20386794154960479961E-02
    0.20122891504405896780E-02
    0.20320517646539738160E-02
    0.19065882037223760674E-02
    0.18314460562781392956E-02
    0.18551965815796461323E-02
    0.18096134606731589713E-02
    0.17753755082005355168E-02
    0.17723360785680427037E-02
    0.17368808936898537821E-02
    0.24969218035673776054E-02
    0.25201863210851478334E-02
    0.27232578518282726104E-02
    0.25682211325602139797E-02
    0.27085084959322129269E-02
    0.26381762764600899529E-02
    0.25414412553548524666E-02
    0.26026593805326654965E-02
    0.24503212764678239909E-02
    0.22493777425658728272E-02
    0.19694111446143637914E-02
    0.21293569773630947536E-02
    0.18961316839482063486E-02
    0.17867333193358819407E-02
    0.16806286708703130611E-02
    0.17167225474271170446E-02
    0.17318820504488623147E-01
    0.16393140015282574307E-01
    0.15888850942323569371E-01
    0.16763352239776693753E-01
    0.16255686357694025534E-01
    0.16430430209732851954E-01
    0.14846017926980077314E-01
    0.13467245857003871598E-01
    0.13883015740910827768E-01
    0.15526607483338103477E-01
    0.10490074357795052540E-01
    0.12345643731564544948E-01
    0.45320484971954847625E-02
    0.84704706565342513525E-02
    0.12782408793478111653E-01
    0.60269217187750544207E-02
    0.16811606151602955656E-01
    0.17264982500064383897E-01
    0.14930421467447697881E-01
    0.17375918456170841297E-01
    0.17056305394741202303E-01
    0.18018248781943756870E-01
    0.16640263291489022779E-01
    0.64840492958478240793E-02
    0.59494524587054000916E-02
    0.32224520040360620649E-02
    0.30500471845298121783E-02
    0.34299000214643412046E-02
    0.86541023424693760968E-02
    0.13132406037425950474E-01
    0.16238871742994608754E-01
    0.14235848316128453875E-01
    0.15715436432547937734E-01
    0.13193983501066285091E-01
    0.14749359047001656120E-01
    0.18075377598423494896E-01
    0.18011150872893004482E-01
    0.18423662821145724705E-01
    0.18564466596859563463E-01
    0.17839749513080906118E-01
    0.10709062367057728057E-01
    0.81692748504298053763E-02
    0.31574156558888334841E-02
    0.77459333660398173652E-02
    0.39724144996434338981E-02
    0.37402563382128552541E-02
    0.13670826821665675241E-01
    0.54898485421613577723E-02
    0.10409331968135088556E-01
    0.13568713646504301090E-01
    0.13185085361123033421E-01
    0.57733429504633095031E-02
    0.10526583744817463728E-01
    0.23989031281697954963E-02
    0.27415950687191257586E-02
    0.22126856697160237827E-02
    0.29157734942325684753E-02
    0.31557631937591443770E-02
    0.22020903885300430712E-02
    0.23577485083634908483E-02
    0.66512672564931953761E-02
    0.12018849219602925973E-01
    0.40490109024331468954E-02
    0.12749205606532218113E-01
    0.11060275130868204782E-01
    0.34759323906141861155E-02
    0.81028167832942737253E-02
    0.14686999529957469462E-01
    0.16306889767589625301E-01
    0.14253057131657172543E-01
    0.15854546037019526944E-01
    0.16563054707804229088E-01
    0.15167890120791744507E-01
    0.13937414152341620621E-01
    0.20600202120582330328E-02
    0.19777513838431792781E-02
    0.18081924723701756595E-02
    0.23516215696290200879E-02
    0.22720663074137031033E-02
    0.18335411943448615482E-02
    0.18643028478633350692E-02
    0.16325196635663348499E-01
    0.17178178828463112893E-01
    0.17981436735134394278E-01
    0.16621480794600518305E-01
    0.18504543256038070986E-01
    0.16659508254818156114E-01
    0.14162576480613408084E-01
    0.15786443561547843645E-01
    0.16568746915513875295E-01
    0.14010397703022363369E-01
    0.15577432197519548024E-01
    0.12485780162112644631E-01
    0.15171101139924382181E-01
    0.14362530120701915565E-01
    0.13429342436003475006E-01
    0.13452886981581469589E-01
    0.26430286814917497082E-02
    0.31438659365227343903E-02
    0.26579561576599497127E-02
    0.30258316559372030845E-02
    0.32964200006703231645E-02
    0.14102634499394566675E-01
    0.16588879650809872091E-01
    0.15060388506873316830E-01
    0.15249097841723496111E-01
    0.16443209749524453217E-01
    0.70348648303192162085E-02
    0.11434986828069490863E-01
    0.12745177796278962801E-01
    0.52435033196598038879E-02
    0.96480992078240811194E-02
    0.16257287994545864540E-01
    0.14565036053581262646E-01
    0.15766899092571475677E-01
    0.14116973604727680799E-01
    0.15199417304529300871E-01
    0.42092070824380871386E-02
    0.12300345132127590841E-01
    0.80475180143178420833E-02
    0.74837038425526547850E-02
    0.11702513905868945285E-01
    0.17788740155283637445E-01
    0.17522277804231507076E-01
    0.17535874175504641975E-01
    0.17774474026525953485E-01
    0.18659101739527304831E-01
    0.25842758467795054825E-02
    0.34756220345822383747E-02
    0.28408931614535295161E-02
    0.28041646215720096233E-02
    0.32373458000793291570E-02
    0.23605212202790757693E-02
    0.22359679125620460574E-02
    0.24829132348439366187E-02
    0.21934304790340152652E-02
    0.26473829873766350877E-02
    0.16523919321039907959E-01
    0.17598741618482838939E-01
    0.17569047592900337296E-01
    0.17258880796021759674E-01
    0.17764824485444873775E-01
    0.12143598699656810158E-01
    0.11800482258950572081E-01
    0.13496467443361623295E-01
    0.12920771496740137904E-01
    0.13873175535919749293E-01
    0.15710712736955543406E-01
    0.13906616510693102506E-01
    0.14108676913227286009E-01
    0.15451614618629707157E-01
    0.15666947892578060586E-01
    0.13720320414315340107E-01
    0.13213335048491254078E-01
    0.13356474731281958723E-01
    0.43653788410855168256E-02
    0.11590973116169658169E-01
    0.21638430911181364032E-02
    0.23325781865979854091E-02
    0.28053360852338532494E-02
    0.28030315723423472260E-02
    0.27752835023644698183E-02
    0.31189992131291054134E-02
    0.34475277698283223263E-02
    0.51601391287576427874E-02
    0.93462976243333037440E-02
    0.12256101469394565032E-01
    0.11929295953732089314E-01
    0.12945904333086790186E-01
    0.17707899659722123320E-01
    0.17179588375370025838E-01
    0.18728047342992763802E-01
    0.17280504889068341867E-01
    0.12728806481335007070E-01
    0.41437553225940008256E-02
    0.59369246446607931711E-02
    0.16491930830137235126E-01
    0.16153501074506887436E-01
    0.27610417330065327446E-02
    0.22918063724428629734E-02
    0.21116324252010714065E-02
    0.94073246062745270041E-02
    0.35039728046132971595E-02
    0.31407113740979713742E-02
    0.13196581606403398612E-01
    0.14316693247942796630E-01
    0.10833138952800774879E-01
    0.15240226212974956194E-01
    0.13811642000825069890E-01
    0.13784881435387100201E-01
    0.36462964032375473448E-02
    0.36028895841869537642E-02
    0.25032690308985439467E-02
    0.16974425276791351574E-01
    0.17682429367775372164E-01
    0.16338536369461000713E-01
    0.24386450163087522273E-02
    0.23476683299124062251E-02
    0.19203484097019365463E-02
    0.22615370365712964343E-02
    0.20227346273564276481E-02
    0.18261182978396733358E-02
    0.16352020869419378601E-01
    0.18360886023695087432E-01
    0.17100294585193527575E-01
    0.16707962310759265356E-01
    0.11372898473839883338E-01
    0.15035940159530247762E-01
    0.12952657548124482667E-01
    0.13069674911851150018E-01
    0.34151772883671371699E-02
    0.12540295412610018982E-01
    0.10848438667157471807E-01
    0.54654794111234795279E-02
    0.17327371571648257642E-01
    0.17705354893266821159E-01
    0.17060135248858444845E-01
    0.15641634524761395542E-01
    0.15110020456103784997E-01
    0.29532443958638801389E-02
    0.38779571715052661707E-02
    0.19933133646077520057E-02
    0.21087106108762794336E-02
    0.14092542579949549758E-01
    0.13049827888838648471E-01
    0.16862250181934395569E-02
    0.17092383713913535115E-02
    0.12868750836267785903E-01
    0.40583931263274168263E-02
    0.37169781455156560707E-02
    0.16694488764507887935E-01
    0.26726930218938646164E-02
    0.12983134531792426408E-01
    0.18808683212538694629E-01
    0.28057666754574351123E-02
    0.16635326178069734931E-01
    0.13834346320838571825E-01
    0.14988915313180287484E-01
    0.12872621418090299250E-01
    0.14645799135807862495E-01
    0.27187296250491522175E-02
    0.30240647006321125755E-02
    0.10753391995124216701E-01
    0.13381161465659430210E-01
    0.16637522103144286589E-01
    0.49069772580652036217E-02
    0.16671282888857202192E-01
    0.14048326476989196274E-01
    0.15334528436763583681E-01
    0.35036152495619421465E-02
    0.23861561383120687835E-02
    0.21278686434925003779E-02
    0.57482703325985552364E-02
    0.48504593672314940192E-02
    0.17875140394290095665E-02
    0.17543372837740241546E-02
    0.18940394382988381180E-02
    0.17911478435814406907E-02
    0.31885159058100851978E-02
    0.84375675177294322260E-02
    0.92928825529721304638E-02
    0.10347269741745185323E-01
    0.10655092565559560677E-01
    0.10222332929435352239E-01
    0.91754872675156064210E-02
    0.73907161125124276255E-02
    0.86640495012257207064E-02
    0.82369387992789304398E-02
    0.55416255661758038326E-02
    0.27544119641948186170E-02
    0.23157207965868301970E-02
    0.20016860042946218665E-02
    0.17719229691903243436E-02
    0.18051961797988036809E-02
    0.18254612813888180731E-02
    0.18241124953430509943E-02
    0.17803742968216212505E-02
    0.17466891951202624493E-02
    0.17894063547661657760E-02
    0.22574530863335440234E-02
    0.23160016362895941879E-02
    0.22721718114134064302E-02
    0.21636443647672478144E-02
    0.19839532588155979649E-02
    0.18194415846451625612E-02
    0.17533382903351785436E-02
