# vtk DataFile Version 3.0
LAPLACIEN  2D
ASCII
DATASET UNSTRUCTURED_GRID
 POINTS         391  float
  0.50371505999999999       0.50367786999999997        0.0000000000000000     
  0.29013556000000001       0.29014535000000002        0.0000000000000000     
  0.70165584999999997       0.71206597999999999        0.0000000000000000     
  0.70304188999999995       0.30176619999999998        0.0000000000000000     
  0.30920671999999999       0.71149227999999998        0.0000000000000000     
  0.79044983999999996       0.49884783999999999        0.0000000000000000     
  0.49102621000000002       0.20968644000000000        0.0000000000000000     
  0.49912957000000002       0.77208717000000004        0.0000000000000000     
  0.21724072999999999       0.48989389000000000        0.0000000000000000     
  0.83255933999999998       0.83046598000000005        0.0000000000000000     
  0.16646774000000000       0.17015694000000001        0.0000000000000000     
  0.83054514999999995       0.16736480000000001        0.0000000000000000     
  0.16953130999999999       0.83265739000000005        0.0000000000000000     
  0.42166445000000002       0.36345201999999999        0.0000000000000000     
  0.64462200999999997       0.56347807999999999        0.0000000000000000     
  0.35324633999999999       0.56311191000000005        0.0000000000000000     
  0.65456411000000003       0.84856860999999995        0.0000000000000000     
  0.35141477999999998       0.15563974000000000        0.0000000000000000     
  0.15290967000000000       0.35206625000000003        0.0000000000000000     
  0.82942241000000005       0.34936866000000000        0.0000000000000000     
  0.84390527000000004       0.64441694999999999        0.0000000000000000     
  0.63699174999999997       0.14284276000000001        0.0000000000000000     
  0.15620682999999999       0.64648446999999998        0.0000000000000000     
  0.36426062999999997       0.85756310999999996        0.0000000000000000     
  0.63489340999999999       0.40519052000000000        0.0000000000000000     
  0.52518872999999999       0.65957078000000002        0.0000000000000000     
  0.32158959999999998       0.42298103999999997        0.0000000000000000     
  0.58861710000000000       0.31711036999999997        0.0000000000000000     
  0.42078418000000001       0.69497151999999995        0.0000000000000000     
  0.48608786999999998       0.89334152000000000        0.0000000000000000     
   9.7084320000000002E-002  0.50000000000000000        0.0000000000000000     
  0.90291568000000000       0.50000000000000000        0.0000000000000000     
  0.51392453000000005       0.10668648999999999        0.0000000000000000     
  0.59792566999999996       0.73122754000000001        0.0000000000000000     
  0.74510058999999995       0.41124730999999998        0.0000000000000000     
  0.73212551999999997       0.90191560000000004        0.0000000000000000     
   9.7784830000000003E-002  0.26957329000000002        0.0000000000000000     
  0.26711221000000002        9.8671499999999995E-002   0.0000000000000000     
  0.90191560000000004       0.26787448000000003        0.0000000000000000     
  0.90118569000000004       0.73039821000000005        0.0000000000000000     
  0.73122947000000005        9.8017859999999998E-002   0.0000000000000000     
   9.8084400000000002E-002  0.73212551999999997        0.0000000000000000     
  0.26957329000000002       0.90221516999999996        0.0000000000000000     
  0.39283522999999998       0.25360379000000000        0.0000000000000000     
  0.74480864000000002       0.60495284999999999        0.0000000000000000     
  0.25505132000000003       0.60593640999999998        0.0000000000000000     
  0.52159297999999998       0.40671636000000000        0.0000000000000000     
  0.40768852000000000       0.47699891000000000        0.0000000000000000     
   9.1467049999999994E-002   9.1876959999999994E-002   0.0000000000000000     
  0.90842484999999995       0.90819225000000003        0.0000000000000000     
  0.90820104999999995        9.1566729999999999E-002   0.0000000000000000     
   9.1807449999999999E-002  0.90843574000000005        0.0000000000000000     
  0.27098960000000000       0.20527094000000001        0.0000000000000000     
  0.73457293999999995       0.79835387000000002        0.0000000000000000     
  0.79817773000000003       0.25713470999999999        0.0000000000000000     
  0.20747797000000001       0.72863946000000002        0.0000000000000000     
  0.20175195000000001       0.27583914999999998        0.0000000000000000     
  0.79603889000000005       0.72159035000000005        0.0000000000000000     
  0.71761666000000002       0.19748431999999999        0.0000000000000000     
  0.28462607000000001       0.80251899999999998        0.0000000000000000     
  0.69134598999999997       0.49261972999999998        0.0000000000000000     
  0.44720578999999999       0.58582935999999997        0.0000000000000000     
  0.24242269999999999       0.37228174000000003        0.0000000000000000     
  0.38265623999999998       0.93072131999999996        0.0000000000000000     
  0.60971754000000000       0.91988369000000003        0.0000000000000000     
   7.9163609999999995E-002  0.60979116000000000        0.0000000000000000     
  0.92010649000000000       0.61081183999999999        0.0000000000000000     
  0.61954008999999999        7.1530830000000004E-002   0.0000000000000000     
  0.91882012999999996       0.38917363999999999        0.0000000000000000     
  0.39086346000000000        8.0652249999999995E-002   0.0000000000000000     
   7.9183480000000001E-002  0.38966213000000000        0.0000000000000000     
  0.59114111999999996       0.49294315000000000        0.0000000000000000     
  0.63337980999999999       0.64485914000000000        0.0000000000000000     
  0.50012352000000004       0.29676539000000002        0.0000000000000000     
  0.82552601000000003       0.92753492000000004        0.0000000000000000     
  0.92774772999999999       0.82498556999999995        0.0000000000000000     
   7.1970870000000006E-002  0.17510291000000000        0.0000000000000000     
  0.17422821999999999        7.2635640000000001E-002   0.0000000000000000     
  0.82510813000000005        7.2134840000000006E-002   0.0000000000000000     
  0.92754665000000003       0.17446275999999999        0.0000000000000000     
  0.17501022999999999       0.92789951999999998        0.0000000000000000     
   7.2464680000000004E-002  0.82554053000000005        0.0000000000000000     
  0.30731587999999999       0.50885354999999999        0.0000000000000000     
  0.59033407999999998       0.22171178999999999        0.0000000000000000     
  0.40109191999999999       0.78725542000000004        0.0000000000000000     
  0.35420917000000002       0.63754104000000000        0.0000000000000000     
  0.15983976999999999       0.56665573000000002        0.0000000000000000     
  0.84108459999999996       0.56757886999999996        0.0000000000000000     
  0.83902096000000004       0.43344338999999998        0.0000000000000000     
  0.43230028999999998       0.16004268999999999        0.0000000000000000     
  0.57536027999999995       0.83041363999999995        0.0000000000000000     
  0.15771898000000001       0.42747892999999998        0.0000000000000000     
  0.34021692999999997       0.34221559000000001        0.0000000000000000     
  0.56002271999999997       0.57501117999999996        0.0000000000000000     
  0.65344329000000001       0.78147597999999996        0.0000000000000000     
   0.0000000000000000        0.0000000000000000        0.0000000000000000     
   1.0000000000000000        0.0000000000000000        0.0000000000000000     
   1.0000000000000000        1.0000000000000000        0.0000000000000000     
   0.0000000000000000        1.0000000000000000        0.0000000000000000     
  0.11111111000000000        0.0000000000000000        0.0000000000000000     
  0.22222222000000000        0.0000000000000000        0.0000000000000000     
  0.33333332999999998        0.0000000000000000        0.0000000000000000     
  0.44444444000000000        0.0000000000000000        0.0000000000000000     
  0.55555555999999995        0.0000000000000000        0.0000000000000000     
  0.66666667000000002        0.0000000000000000        0.0000000000000000     
  0.77777777999999997        0.0000000000000000        0.0000000000000000     
  0.88888889000000004        0.0000000000000000        0.0000000000000000     
   1.0000000000000000       0.11111111000000000        0.0000000000000000     
   1.0000000000000000       0.22222222000000000        0.0000000000000000     
   1.0000000000000000       0.33333332999999998        0.0000000000000000     
   1.0000000000000000       0.44444444000000000        0.0000000000000000     
   1.0000000000000000       0.55555555999999995        0.0000000000000000     
   1.0000000000000000       0.66666667000000002        0.0000000000000000     
   1.0000000000000000       0.77777777999999997        0.0000000000000000     
   1.0000000000000000       0.88888889000000004        0.0000000000000000     
  0.88888889000000004        1.0000000000000000        0.0000000000000000     
  0.77777777999999997        1.0000000000000000        0.0000000000000000     
  0.66666667000000002        1.0000000000000000        0.0000000000000000     
  0.55555555999999995        1.0000000000000000        0.0000000000000000     
  0.44444444000000000        1.0000000000000000        0.0000000000000000     
  0.33333332999999998        1.0000000000000000        0.0000000000000000     
  0.22222222000000000        1.0000000000000000        0.0000000000000000     
  0.11111111000000000        1.0000000000000000        0.0000000000000000     
   0.0000000000000000       0.11111111000000000        0.0000000000000000     
   0.0000000000000000       0.22222222000000000        0.0000000000000000     
[...]
 CELL_DATA         354
 SCALARS V float
 LOOKUP_TABLE default
    0.23957144546010267043E-02
    0.74303496254192538673E-02
    0.18086371214700114416E-02
    0.18338318399941998076E-02
    0.27655243226153668201E-02
    0.32551802715781179461E-02
    0.12084312542670474361E-01
    0.71753332588597165329E-02
    0.13786408251020194210E-01
    0.14843958340128561579E-01
    0.17240502449112921762E-01
    0.16230104729550307724E-01
    0.17511149688769322985E-01
    0.17705786760651320844E-01
    0.17387557745906979945E-01
    0.17707672669647029490E-01
    0.16843392419313211322E-01
    0.15492009528327901555E-01
    0.11092182255806869520E-01
    0.14233506607908836053E-01
    0.95539301652442891466E-02
    0.11540808903561140461E-01
    0.13517890444718110715E-01
    0.12320318028159161008E-01
    0.13664611249879672628E-01
    0.13278481719229861396E-01
    0.99504093913472327348E-02
    0.12413461429812358214E-01
    0.73267416890705535509E-02
    0.51997784260622847974E-02
    0.26434541718252228294E-02
    0.30064057327690899522E-02
    0.24326450031231607908E-02
    0.21560747667021397216E-02
    0.18779604016690839771E-02
    0.20075530530440314353E-02
    0.18390464443789808751E-02
    0.18447862718200757313E-02
    0.19647936513534198198E-02
    0.18772552193509831064E-02
    0.19732797831391135461E-02
    0.19910199674080136280E-02
    0.20267953582255747100E-02
    0.20005598655490580522E-02
    0.20201856405740454929E-02
    0.18955132655169382259E-02
    0.18209397460262712921E-02
    0.18445133810575874925E-02
    0.17993051754001043382E-02
    0.17653844730236242268E-02
    0.17626652685660642011E-02
    0.17273005385685124592E-02
    0.24821050242230845509E-02
    0.25052093993880933387E-02
    0.27071174291857314290E-02
    0.25529823291342091177E-02
    0.26926408693277313795E-02
    0.26226940233653526884E-02
    0.25264270861456916348E-02
    0.25872739509390256171E-02
    0.24358568215461580582E-02
    0.22361385300230102180E-02
    0.19579825899818615806E-02
    0.21168955923062441303E-02
    0.18851942260066521708E-02
    0.17765430602596126233E-02
    0.16714250454309227331E-02
    0.17071331699491901386E-02
    0.17225391729801541735E-01
    0.16299694922186559742E-01
    0.15795840270925169679E-01
    0.16671298553812347737E-01
    0.16160517529148776122E-01
    0.16335242770707251309E-01
    0.14758074806060266643E-01
    0.13388646299386483193E-01
    0.13802083109226172958E-01
    0.15436853604539746768E-01
    0.10430244785050717116E-01
    0.12271675308874081811E-01
    0.45098603242206686259E-02
    0.84211798377122615289E-02
    0.12708422858250667184E-01
    0.59948452618092257227E-02
    0.16718974728837331795E-01
    0.17177074657840234184E-01
    0.14866867186195602962E-01
    0.17282188691317992846E-01
    0.16964266306766173642E-01
    0.17921012619136394983E-01
    0.16559813892415890801E-01
    0.64479463760970176511E-02
    0.59146949416729582144E-02
    0.32039557225403431789E-02
    0.30319917064771224023E-02
    0.34106892615371948475E-02
    0.86038062053714562533E-02
    0.13054621605477330359E-01
    0.16144058717577174089E-01
    0.14152368497662361213E-01
    0.15623365228352149858E-01
    0.13116819189735513806E-01
    0.14662162679479177202E-01
    0.17981476040472670064E-01
    0.17915593952841396552E-01
    0.18327416006497624507E-01
    0.18468231328932466218E-01
    0.17744940073389496582E-01
    0.10644349562459652636E-01
    0.81235001543861692919E-02
    0.31385212729577414981E-02
    0.77002799341141722755E-02
    0.39513603514168861575E-02
    0.37198495451478998108E-02
    0.13591537862971854456E-01
    0.54616796683772204229E-02
    0.10347776165365103057E-01
    0.13486070098117404134E-01
    0.13107533800458419371E-01
    0.57414600850191135906E-02
    0.10463716142638919415E-01
    0.23847463151970946411E-02
    0.27254125324097165477E-02
    0.21996819361335606322E-02
    0.28984820351448214830E-02
    0.31370737738064891423E-02
    0.21892070163612221446E-02
    0.23438684350974101772E-02
    0.66144272498568287832E-02
    0.11946388474858189721E-01
    0.40286222432756113934E-02
    0.12673703900810490142E-01
    0.10996514000245522988E-01
    0.34567501741444121854E-02
    0.80573158589604815250E-02
    0.14601300258890330397E-01
    0.16213767226896037138E-01
    0.14170208059010792889E-01
    0.15762528783506563057E-01
    0.16469156466981632603E-01
    0.15080211192054155181E-01
    0.13856733909937435714E-01
    0.20480025347417514688E-02
    0.19662639446542109697E-02
    0.17978307828636044992E-02
    0.23377325980593662708E-02
    0.22586720959461301442E-02
    0.18230145144158835593E-02
    0.18535713808577420833E-02
    0.16235619434358326829E-01
    0.17089670343344288278E-01
    0.17886871415226254789E-01
    0.16532199667396989262E-01
    0.18408490086969240412E-01
    0.16570347886034966778E-01
    0.14079818943520727714E-01
    0.15694430992806297775E-01
    0.16472407395177170175E-01
    0.13928300600780181909E-01
    0.15485208184769245349E-01
    0.12412326502523919614E-01
    0.15082137249964698913E-01
    0.14278400558317243252E-01
    0.13350741956959424200E-01
    0.13373202696783919458E-01
    0.26272732442464211133E-02
    0.31250600565947746906E-02
    0.26420439328205861350E-02
    0.30078939444036722171E-02
    0.32768980765862788622E-02
    0.14021796886354305489E-01
    0.16494277027398817487E-01
    0.14972329984740465753E-01
    0.15162121143849878815E-01
    0.16350564733817952306E-01
    0.69951448367266480521E-02
    0.11365592565132177916E-01
    0.12666804604745014740E-01
    0.52168449514050554278E-02
    0.95910098153845942115E-02
    0.16165505215910078163E-01
    0.14481125768211953325E-01
    0.15676606218218001876E-01
    0.14035178758124010334E-01
    0.15109655353900242059E-01
    0.41869611685439248050E-02
    0.12226480470502449141E-01
    0.80002206212994760037E-02
    0.74395649233813853154E-02
    0.11631896635048301347E-01
    0.17698073887846946933E-01
    0.17428439296167764355E-01
    0.17447202064054014026E-01
    0.17680361294397730493E-01
    0.18565854152212284134E-01
    0.25688511193129740309E-02
    0.34557204343678869438E-02
    0.28240956304130624549E-02
    0.27873642523125129709E-02
    0.32186861207092873002E-02
    0.23466833226334924203E-02
    0.22227457126283581626E-02
    0.24682051827149839932E-02
    0.21805214637604882801E-02
    0.26317840939589338088E-02
    0.16444428491171017570E-01
    0.17503646012427646894E-01
    0.17478483946508492630E-01
    0.17165354205745886329E-01
    0.17669261893961400040E-01
    0.12071183325258376742E-01
    0.11728980997763628624E-01
    0.13416476855509160138E-01
    0.12845029709077488561E-01
    0.13792291272292749038E-01
    0.15620051167913585194E-01
    0.13825532417698464110E-01
    0.14026986770550073369E-01
    0.15362362165289862592E-01
    0.15597098028595803021E-01
    0.13667278195289714673E-01
    0.13164157290389782648E-01
    0.13274779265350493754E-01
    0.43431546472427898578E-02
    0.11521349534014995591E-01
    0.21511440179498146109E-02
    0.23188014526108803072E-02
    0.27886677903395094315E-02
    0.27863858047435193822E-02
    0.27587376086229496025E-02
    0.31009135387254898458E-02
    0.34287586606577915606E-02
    0.51325899639591736692E-02
    0.92969831221115344089E-02
    0.12185272847675406027E-01
    0.11862391790276167330E-01
    0.12870380525112468106E-01
    0.17611071385243586007E-01
    0.17080993494520652770E-01
    0.18630715441225201290E-01
    0.17186261695509141151E-01
    0.12654550042146538516E-01
    0.41221668763141618846E-02
    0.59041171124026596215E-02
    0.16399523855083385226E-01
    0.16058613058320195255E-01
    0.27446218465178116169E-02
    0.22782433813256890154E-02
    0.20992910716384829972E-02
    0.93526161397820880422E-02
    0.34858886949441776452E-02
    0.31233375919537181495E-02
    0.13118885831694328259E-01
    0.14235608616431479068E-01
    0.10768691692108218333E-01
    0.15150578700538167021E-01
    0.13733184647215401775E-01
    0.13706636593717975298E-01
    0.36259523670321433877E-02
    0.35830546946651444309E-02
    0.24884882809316963802E-02
    0.16880699038518742761E-01
    0.17582147234477488867E-01
    0.16243814139438969568E-01
    0.24241980429148329498E-02
    0.23337506202848919135E-02
    0.19092509484486459327E-02
    0.22482038432030974559E-02
    0.20109090523289592685E-02
    0.18156539987887443909E-02
    0.16255672078176963691E-01
    0.18264117600776591521E-01
    0.17007003152020708225E-01
    0.16615107927097614443E-01
    0.11303578403013851347E-01
    0.14946974098872283648E-01
    0.12877502010814254746E-01
    0.12993164021353274806E-01
    0.33956861096874589590E-02
    0.12466254291038049093E-01
    0.10783590732222377365E-01
    0.54343208383691721242E-02
    0.17231685103524851943E-01
    0.17611843336746691585E-01
    0.16977219174579477601E-01
    0.15550447106114671098E-01
    0.15021666755805707441E-01
    0.29358514219005472229E-02
    0.38584514714274033460E-02
    0.19817308293673657066E-02
    0.20963575830549490212E-02
    0.14007762265947392571E-01
    0.12976969756797178401E-01
    0.16767546099200226085E-02
    0.16995761111275981773E-02
    0.12793117338931465909E-01
    0.40365996464802244778E-02
    0.36973321610918709682E-02
    0.16603348835089952462E-01
    0.26567853550128247425E-02
    0.12906297222041791806E-01
    0.18708553265726339532E-01
    0.27892202991740191326E-02
    0.16542756772947687233E-01
    0.13750555373259150393E-01
    0.14900639714912903427E-01
    0.12791690786230765914E-01
    0.14559725670948542309E-01
    0.27025138691828117996E-02
    0.30059824826589882224E-02
    0.10692391992025367109E-01
    0.13302757161531219079E-01
    0.16542770940658424461E-01
    0.48802826427629224237E-02
    0.16573966686158996681E-01
    0.13965778165399244520E-01
    0.15263671750125735321E-01
    0.34841816647683829591E-02
    0.23720256730598906353E-02
    0.21154105657084343838E-02
    0.57227133492884947608E-02
    0.48253607263007945727E-02
    0.17774823813572571216E-02
    0.17445613754457204615E-02
    0.18840564780945572715E-02
    0.17817188161887351477E-02
    0.31711426634390442111E-02
    0.83896957409676630596E-02
    0.92392943826820929376E-02
    0.10288082025379632900E-01
    0.10593995675348317348E-01
    0.10163431401737810233E-01
    0.91217926295298051159E-02
    0.73498341908281271395E-02
    0.86145496472092835533E-02
    0.81896360706380372241E-02
    0.55120123994132717155E-02
    0.27385359275578754004E-02
    0.23020963554356800237E-02
    0.19900587345310764321E-02
    0.17618596370349553365E-02
    0.17948365308560528669E-02
    0.18149373349664863798E-02
    0.18136114699424672313E-02
    0.17701911953195499823E-02
    0.17368412088961961669E-02
    0.17795811485960093268E-02
    0.22441629830377042565E-02
    0.23023608623736232896E-02
    0.22587877227500793506E-02
    0.21509428421976543692E-02
    0.19723897357762330829E-02
    0.18090179214243307191E-02
    0.17435687352668194621E-02
