# vtk DataFile Version 3.0
LAPLACIEN  2D
ASCII
DATASET UNSTRUCTURED_GRID
 POINTS         391  float
  0.50371505999999999       0.50367786999999997        0.0000000000000000     
  0.29013556000000001       0.29014535000000002        0.0000000000000000     
  0.70165584999999997       0.71206597999999999        0.0000000000000000     
  0.70304188999999995       0.30176619999999998        0.0000000000000000     
  0.30920671999999999       0.71149227999999998        0.0000000000000000     
  0.79044983999999996       0.49884783999999999        0.0000000000000000     
  0.49102621000000002       0.20968644000000000        0.0000000000000000     
  0.49912957000000002       0.77208717000000004        0.0000000000000000     
  0.21724072999999999       0.48989389000000000        0.0000000000000000     
  0.83255933999999998       0.83046598000000005        0.0000000000000000     
  0.16646774000000000       0.17015694000000001        0.0000000000000000     
  0.83054514999999995       0.16736480000000001        0.0000000000000000     
  0.16953130999999999       0.83265739000000005        0.0000000000000000     
  0.42166445000000002       0.36345201999999999        0.0000000000000000     
  0.64462200999999997       0.56347807999999999        0.0000000000000000     
  0.35324633999999999       0.56311191000000005        0.0000000000000000     
  0.65456411000000003       0.84856860999999995        0.0000000000000000     
  0.35141477999999998       0.15563974000000000        0.0000000000000000     
  0.15290967000000000       0.35206625000000003        0.0000000000000000     
  0.82942241000000005       0.34936866000000000        0.0000000000000000     
  0.84390527000000004       0.64441694999999999        0.0000000000000000     
  0.63699174999999997       0.14284276000000001        0.0000000000000000     
  0.15620682999999999       0.64648446999999998        0.0000000000000000     
  0.36426062999999997       0.85756310999999996        0.0000000000000000     
  0.63489340999999999       0.40519052000000000        0.0000000000000000     
  0.52518872999999999       0.65957078000000002        0.0000000000000000     
  0.32158959999999998       0.42298103999999997        0.0000000000000000     
  0.58861710000000000       0.31711036999999997        0.0000000000000000     
  0.42078418000000001       0.69497151999999995        0.0000000000000000     
  0.48608786999999998       0.89334152000000000        0.0000000000000000     
   9.7084320000000002E-002  0.50000000000000000        0.0000000000000000     
  0.90291568000000000       0.50000000000000000        0.0000000000000000     
  0.51392453000000005       0.10668648999999999        0.0000000000000000     
  0.59792566999999996       0.73122754000000001        0.0000000000000000     
  0.74510058999999995       0.41124730999999998        0.0000000000000000     
  0.73212551999999997       0.90191560000000004        0.0000000000000000     
   9.7784830000000003E-002  0.26957329000000002        0.0000000000000000     
  0.26711221000000002        9.8671499999999995E-002   0.0000000000000000     
  0.90191560000000004       0.26787448000000003        0.0000000000000000     
  0.90118569000000004       0.73039821000000005        0.0000000000000000     
  0.73122947000000005        9.8017859999999998E-002   0.0000000000000000     
   9.8084400000000002E-002  0.73212551999999997        0.0000000000000000     
  0.26957329000000002       0.90221516999999996        0.0000000000000000     
  0.39283522999999998       0.25360379000000000        0.0000000000000000     
  0.74480864000000002       0.60495284999999999        0.0000000000000000     
  0.25505132000000003       0.60593640999999998        0.0000000000000000     
  0.52159297999999998       0.40671636000000000        0.0000000000000000     
  0.40768852000000000       0.47699891000000000        0.0000000000000000     
   9.1467049999999994E-002   9.1876959999999994E-002   0.0000000000000000     
  0.90842484999999995       0.90819225000000003        0.0000000000000000     
  0.90820104999999995        9.1566729999999999E-002   0.0000000000000000     
   9.1807449999999999E-002  0.90843574000000005        0.0000000000000000     
  0.27098960000000000       0.20527094000000001        0.0000000000000000     
  0.73457293999999995       0.79835387000000002        0.0000000000000000     
  0.79817773000000003       0.25713470999999999        0.0000000000000000     
  0.20747797000000001       0.72863946000000002        0.0000000000000000     
  0.20175195000000001       0.27583914999999998        0.0000000000000000     
  0.79603889000000005       0.72159035000000005        0.0000000000000000     
  0.71761666000000002       0.19748431999999999        0.0000000000000000     
  0.28462607000000001       0.80251899999999998        0.0000000000000000     
  0.69134598999999997       0.49261972999999998        0.0000000000000000     
  0.44720578999999999       0.58582935999999997        0.0000000000000000     
  0.24242269999999999       0.37228174000000003        0.0000000000000000     
  0.38265623999999998       0.93072131999999996        0.0000000000000000     
  0.60971754000000000       0.91988369000000003        0.0000000000000000     
   7.9163609999999995E-002  0.60979116000000000        0.0000000000000000     
  0.92010649000000000       0.61081183999999999        0.0000000000000000     
  0.61954008999999999        7.1530830000000004E-002   0.0000000000000000     
  0.91882012999999996       0.38917363999999999        0.0000000000000000     
  0.39086346000000000        8.0652249999999995E-002   0.0000000000000000     
   7.9183480000000001E-002  0.38966213000000000        0.0000000000000000     
  0.59114111999999996       0.49294315000000000        0.0000000000000000     
  0.63337980999999999       0.64485914000000000        0.0000000000000000     
  0.50012352000000004       0.29676539000000002        0.0000000000000000     
  0.82552601000000003       0.92753492000000004        0.0000000000000000     
  0.92774772999999999       0.82498556999999995        0.0000000000000000     
   7.1970870000000006E-002  0.17510291000000000        0.0000000000000000     
  0.17422821999999999        7.2635640000000001E-002   0.0000000000000000     
  0.82510813000000005        7.2134840000000006E-002   0.0000000000000000     
  0.92754665000000003       0.17446275999999999        0.0000000000000000     
  0.17501022999999999       0.92789951999999998        0.0000000000000000     
   7.2464680000000004E-002  0.82554053000000005        0.0000000000000000     
  0.30731587999999999       0.50885354999999999        0.0000000000000000     
  0.59033407999999998       0.22171178999999999        0.0000000000000000     
  0.40109191999999999       0.78725542000000004        0.0000000000000000     
  0.35420917000000002       0.63754104000000000        0.0000000000000000     
  0.15983976999999999       0.56665573000000002        0.0000000000000000     
  0.84108459999999996       0.56757886999999996        0.0000000000000000     
  0.83902096000000004       0.43344338999999998        0.0000000000000000     
  0.43230028999999998       0.16004268999999999        0.0000000000000000     
  0.57536027999999995       0.83041363999999995        0.0000000000000000     
  0.15771898000000001       0.42747892999999998        0.0000000000000000     
  0.34021692999999997       0.34221559000000001        0.0000000000000000     
  0.56002271999999997       0.57501117999999996        0.0000000000000000     
  0.65344329000000001       0.78147597999999996        0.0000000000000000     
   0.0000000000000000        0.0000000000000000        0.0000000000000000     
   1.0000000000000000        0.0000000000000000        0.0000000000000000     
   1.0000000000000000        1.0000000000000000        0.0000000000000000     
   0.0000000000000000        1.0000000000000000        0.0000000000000000     
  0.11111111000000000        0.0000000000000000        0.0000000000000000     
  0.22222222000000000        0.0000000000000000        0.0000000000000000     
  0.33333332999999998        0.0000000000000000        0.0000000000000000     
  0.44444444000000000        0.0000000000000000        0.0000000000000000     
  0.55555555999999995        0.0000000000000000        0.0000000000000000     
  0.66666667000000002        0.0000000000000000        0.0000000000000000     
  0.77777777999999997        0.0000000000000000        0.0000000000000000     
  0.88888889000000004        0.0000000000000000        0.0000000000000000     
   1.0000000000000000       0.11111111000000000        0.0000000000000000     
   1.0000000000000000       0.22222222000000000        0.0000000000000000     
   1.0000000000000000       0.33333332999999998        0.0000000000000000     
   1.0000000000000000       0.44444444000000000        0.0000000000000000     
   1.0000000000000000       0.55555555999999995        0.0000000000000000     
   1.0000000000000000       0.66666667000000002        0.0000000000000000     
   1.0000000000000000       0.77777777999999997        0.0000000000000000     
   1.0000000000000000       0.88888889000000004        0.0000000000000000     
  0.88888889000000004        1.0000000000000000        0.0000000000000000     
  0.77777777999999997        1.0000000000000000        0.0000000000000000     
  0.66666667000000002        1.0000000000000000        0.0000000000000000     
  0.55555555999999995        1.0000000000000000        0.0000000000000000     
  0.44444444000000000        1.0000000000000000        0.0000000000000000     
  0.33333332999999998        1.0000000000000000        0.0000000000000000     
  0.22222222000000000        1.0000000000000000        0.0000000000000000     
  0.11111111000000000        1.0000000000000000        0.0000000000000000     
   0.0000000000000000       0.11111111000000000        0.0000000000000000     
   0.0000000000000000       0.22222222000000000        0.0000000000000000     
[...]
 CELL_DATA         354
 SCALARS V float
 LOOKUP_TABLE default
    0.23815598275035627408E-02
    0.73981318734287811884E-02
    0.17984180496521261390E-02
    0.18239959058327769731E-02
    0.27491305693149461174E-02
    0.32374209941790554543E-02
    0.12015027839221537054E-01
    0.71347244578544039700E-02
    0.13708315433020345706E-01
    0.14758964308556530437E-01
    0.17141149376262238002E-01
    0.16136051984521438546E-01
    0.17411828470013372694E-01
    0.17605020192647414384E-01
    0.17287582922507333666E-01
    0.17606039802649499360E-01
    0.16745793165782212747E-01
    0.15401898080831047388E-01
    0.11032141536836514994E-01
    0.14147573589472647870E-01
    0.95041842297484326746E-02
    0.11478911760590673405E-01
    0.13441830117337173062E-01
    0.12252495100551805129E-01
    0.13586891974773380315E-01
    0.13202706961057079221E-01
    0.98950293468585449885E-02
    0.12342048472241457305E-01
    0.72887461839750969025E-02
    0.51715009090909456330E-02
    0.26279596119847844875E-02
    0.29890817232677930823E-02
    0.24182747630063913466E-02
    0.21433958597849374524E-02
    0.18671596182984772673E-02
    0.19958758802528712810E-02
    0.18285351800317367534E-02
    0.18342069118810588445E-02
    0.19533704476799159874E-02
    0.18664052592540644141E-02
    0.19618270689504492717E-02
    0.19794411490266735666E-02
    0.20149860981544423337E-02
    0.19889042745355432762E-02
    0.20083938721707048254E-02
    0.18845072895007849989E-02
    0.18104978653435922428E-02
    0.18338962624310018498E-02
    0.17890584032461249141E-02
    0.17554495611670434610E-02
    0.17530415349238668080E-02
    0.17177716049344721877E-02
    0.24673830545897442595E-02
    0.24903288998679175802E-02
    0.26910814702459113362E-02
    0.25378423956010807624E-02
    0.26768782595449815837E-02
    0.26073143416380940157E-02
    0.25115096229391853551E-02
    0.25719880579364953234E-02
    0.24214847580099961404E-02
    0.22229835956482811229E-02
    0.19466255034786485341E-02
    0.21045128755652086662E-02
    0.18743236653134124400E-02
    0.17664136754388575033E-02
    0.16622725210076426394E-02
    0.16975985899104891960E-02
    0.17132373449003163862E-01
    0.16206769347309572804E-01
    0.15703371287358845743E-01
    0.16579680662011625492E-01
    0.16065911447939038720E-01
    0.16240600356411248606E-01
    0.14670668752818038366E-01
    0.13310532515213330251E-01
    0.13721636286849435427E-01
    0.15347614007725621232E-01
    0.10370331527158962309E-01
    0.12197959217588968950E-01
    0.44875686290207156617E-02
    0.83719751283569850131E-02
    0.12634350728703220082E-01
    0.59628354765990940548E-02
    0.16626801512035993547E-01
    0.17089156666412638058E-01
    0.14803585355929512607E-01
    0.17188495616352682249E-01
    0.16872588706004158776E-01
    0.17825612136748048009E-01
    0.16479378279333267709E-01
    0.64117724633498511533E-02
    0.58800155428970195953E-02
    0.31855809797692600030E-02
    0.30140505151246537591E-02
    0.33915879543015758565E-02
    0.85533953945041551331E-02
    0.12977321725441040567E-01
    0.16049800529979285635E-01
    0.14069404455638307230E-01
    0.15531838666658578235E-01
    0.13040142988349073816E-01
    0.14575490292556446056E-01
    0.17887642500782403865E-01
    0.17820273857248134647E-01
    0.18231056662845253336E-01
    0.18371750727244368084E-01
    0.17650452734288186313E-01
    0.10579758684512963543E-01
    0.80776434074068120816E-02
    0.31197469942845028855E-02
    0.76547141745208152966E-02
    0.39302644439456850545E-02
    0.36994782576046545894E-02
    0.13512685512335647839E-01
    0.54333257288751660857E-02
    0.10286152166074320757E-01
    0.13403841728215893508E-01
    0.13030056008779412891E-01
    0.57096404197797476221E-02
    0.10400880988693038398E-01
    0.23706790057870003215E-02
    0.27093336249148294859E-02
    0.21867588453852232142E-02
    0.28813010485258345669E-02
    0.31185037930946050803E-02
    0.21764042514317051558E-02
    0.23300756226192365778E-02
    0.65775209419365217312E-02
    0.11874160298440969777E-01
    0.40081199511423038981E-02
    0.12598349766213153694E-01
    0.10932678114968886335E-01
    0.34376985244941771387E-02
    0.80117834674408097695E-02
    0.14516125317603633879E-01
    0.16121152654503909107E-01
    0.14087815089171652760E-01
    0.15671053010096906710E-01
    0.16377623867570256094E-01
    0.14993022109718822515E-01
    0.13776525215917316547E-01
    0.20360598334472324554E-02
    0.19548478732519690079E-02
    0.17875317902111378162E-02
    0.23239304782687905497E-02
    0.22453620010153448050E-02
    0.18125521821606464194E-02
    0.18429057617819616637E-02
    0.16146230673618665319E-01
    0.17001207232093480670E-01
    0.17792036122402377085E-01
    0.16443079470133285802E-01
    0.18312123886239844994E-01
    0.16481314787341095479E-01
    0.13997573974524576620E-01
    0.15602964172618402627E-01
    0.16376629879832391157E-01
    0.13846717644280623349E-01
    0.15393532396120894468E-01
    0.12339024777203669997E-01
    0.14993699346169637315E-01
    0.14194771365650442341E-01
    0.13272626202771999754E-01
    0.13293686603476290511E-01
    0.26116171292593580965E-02
    0.31063730149326726666E-02
    0.26262319464655150408E-02
    0.29900700762368463172E-02
    0.32575004299092592125E-02
    0.13941381743203272447E-01
    0.16400187758962733037E-01
    0.14884785912738680846E-01
    0.15075590028435816026E-01
    0.16258408463237238734E-01
    0.69553754654438975855E-02
    0.11296419833624509951E-01
    0.12588799665703290578E-01
    0.51900157461724190713E-02
    0.95341052847891759325E-02
    0.16074205505779849690E-01
    0.14397705802714089868E-01
    0.15586828610520676169E-01
    0.13953872365637097833E-01
    0.15020436744115961414E-01
    0.41647104715574643705E-02
    0.12152791570061700563E-01
    0.79530802818897090162E-02
    0.73955604375362804515E-02
    0.11561446515423352832E-01
    0.17607460616670889825E-01
    0.17334803018634551558E-01
    0.17360314271705017813E-01
    0.17586397898049520305E-01
    0.18472523086404270265E-01
    0.25535229585048335732E-02
    0.34359470523647895474E-02
    0.28074051313688452858E-02
    0.27706698006547563796E-02
    0.32001509085511706254E-02
    0.23329337905829252223E-02
    0.22096064569448584970E-02
    0.24535905200325364151E-02
    0.21676940503268424774E-02
    0.26162851134709521304E-02
    0.16365229137410647331E-01
    0.17408616045938973133E-01
    0.17387921535185445199E-01
    0.17072276849860529985E-01
    0.17573782492704258934E-01
    0.11998979474720155441E-01
    0.11657718086698434096E-01
    0.13336933674930290944E-01
    0.12769658481905974898E-01
    0.13711909510154187547E-01
    0.15529918195015174343E-01
    0.13744912437056265933E-01
    0.13945772828244150723E-01
    0.15273617466102392543E-01
    0.15527546327833350454E-01
    0.13614527479408467317E-01
    0.13115224495761364232E-01
    0.13193498663421503181E-01
    0.43208772521023969954E-02
    0.11451826038394480323E-01
    0.21385251222900427369E-02
    0.23051120299174151194E-02
    0.27721073622066182141E-02
    0.27698462738364902289E-02
    0.27422979518560569590E-02
    0.30829490940377135728E-02
    0.34100388832722407229E-02
    0.51049336052025008278E-02
    0.92473205900184644868E-02
    0.12114661393887869029E-01
    0.11795430322132927081E-01
    0.12795333095328861872E-01
    0.17514661557063850722E-01
    0.16982960158769339759E-01
    0.18533488432161140946E-01
    0.17092436151994214871E-01
    0.12580235148729964484E-01
    0.41005770306441627696E-02
    0.58714361199320346321E-02
    0.16307620338932730941E-01
    0.15964284423288212234E-01
    0.27283049722284249093E-02
    0.22647659659137718904E-02
    0.20870270015045469005E-02
    0.92978427949241340689E-02
    0.34677366230134302506E-02
    0.31060817847657303838E-02
    0.13041508308141318284E-01
    0.14154844187986147241E-01
    0.10704503901064334886E-01
    0.15061465695987178923E-01
    0.13655085375333497755E-01
    0.13628694432394922176E-01
    0.36056741861148593198E-02
    0.35632691680278702484E-02
    0.24738008044038507782E-02
    0.16789272674334949909E-01
    0.17482402968541133764E-01
    0.16149625465729483542E-01
    0.24098415403588512203E-02
    0.23199204870009968761E-02
    0.18982216921988354259E-02
    0.22349541823213836186E-02
    0.19991570778586263343E-02
    0.18052536052390905520E-02
    0.16159890655261226894E-01
    0.18167597574184179976E-01
    0.16914120023794207426E-01
    0.16522715960531720453E-01
    0.11234549890268896721E-01
    0.14858541614104960743E-01
    0.12802692083133605100E-01
    0.12916926819636933427E-01
    0.33763195948726489916E-02
    0.12392295277310200197E-01
    0.10718683312903695692E-01
    0.54033008466912481327E-02
    0.17136486868045617410E-01
    0.17518348653297904916E-01
    0.16894312322369257895E-01
    0.15459788368468667386E-01
    0.14933839002700836918E-01
    0.29185756961453632186E-02
    0.38388259736351960406E-02
    0.19702193802095158311E-02
    0.20840807857237576318E-02
    0.13923412255185670799E-01
    0.12904053933116077860E-01
    0.16673408481128165325E-02
    0.16899716979517983174E-02
    0.12717789603729455494E-01
    0.40148010011868823232E-02
    0.36777155833102445279E-02
    0.16514431289282503756E-01
    0.26409782517752603513E-02
    0.12829833180333361647E-01
    0.18610162618252275302E-01
    0.27727805822247118817E-02
    0.16450678744245890439E-01
    0.13667226466462227552E-01
    0.14812897220698891670E-01
    0.12711180945751167359E-01
    0.14474161418974068258E-01
    0.26864001492892157844E-02
    0.29880155507187077316E-02
    0.10631237973086181056E-01
    0.13224846874465024868E-01
    0.16448552587575493433E-01
    0.48536117095603235547E-02
    0.16477219476347098465E-01
    0.13883741235876241940E-01
    0.15192764604222279076E-01
    0.34648323678079483157E-02
    0.23579852252423425148E-02
    0.21030319269178285140E-02
    0.56967318151220445316E-02
    0.48002822757592100711E-02
    0.17675075805491222061E-02
    0.17348397473130855017E-02
    0.18741098540546166293E-02
    0.17723302055609227966E-02
    0.31538239761310315167E-02
    0.83418391444083396513E-02
    0.91860224794112505659E-02
    0.10229243475424764503E-01
    0.10533259496814224854E-01
    0.10104873339479451821E-01
    0.90684092106318014287E-02
    0.73091724086990685766E-02
    0.85652703709170815993E-02
    0.81426005482156064291E-02
    0.54824302874271870281E-02
    0.27227688807846877825E-02
    0.22885594900296894749E-02
    0.19785035888011327961E-02
    0.17518567584223325179E-02
    0.17845408740276545462E-02
    0.18044788778361869723E-02
    0.18031757033603594987E-02
    0.17600705023754839584E-02
    0.17270508752517189140E-02
    0.17698051946546662465E-02
    0.22309583806793169616E-02
    0.22888083293858057718E-02
    0.22454900624211257196E-02
    0.21383228093913844367E-02
    0.19608993181276872762E-02
    0.17986580114059552444E-02
    0.17338533761502587707E-02
