# vtk DataFile Version 3.0
LAPLACIEN  2D
ASCII
DATASET UNSTRUCTURED_GRID
 POINTS         391  float
  0.50371505999999999       0.50367786999999997        0.0000000000000000     
  0.29013556000000001       0.29014535000000002        0.0000000000000000     
  0.70165584999999997       0.71206597999999999        0.0000000000000000     
  0.70304188999999995       0.30176619999999998        0.0000000000000000     
  0.30920671999999999       0.71149227999999998        0.0000000000000000     
  0.79044983999999996       0.49884783999999999        0.0000000000000000     
  0.49102621000000002       0.20968644000000000        0.0000000000000000     
  0.49912957000000002       0.77208717000000004        0.0000000000000000     
  0.21724072999999999       0.48989389000000000        0.0000000000000000     
  0.83255933999999998       0.83046598000000005        0.0000000000000000     
  0.16646774000000000       0.17015694000000001        0.0000000000000000     
  0.83054514999999995       0.16736480000000001        0.0000000000000000     
  0.16953130999999999       0.83265739000000005        0.0000000000000000     
  0.42166445000000002       0.36345201999999999        0.0000000000000000     
  0.64462200999999997       0.56347807999999999        0.0000000000000000     
  0.35324633999999999       0.56311191000000005        0.0000000000000000     
  0.65456411000000003       0.84856860999999995        0.0000000000000000     
  0.35141477999999998       0.15563974000000000        0.0000000000000000     
  0.15290967000000000       0.35206625000000003        0.0000000000000000     
  0.82942241000000005       0.34936866000000000        0.0000000000000000     
  0.84390527000000004       0.64441694999999999        0.0000000000000000     
  0.63699174999999997       0.14284276000000001        0.0000000000000000     
  0.15620682999999999       0.64648446999999998        0.0000000000000000     
  0.36426062999999997       0.85756310999999996        0.0000000000000000     
  0.63489340999999999       0.40519052000000000        0.0000000000000000     
  0.52518872999999999       0.65957078000000002        0.0000000000000000     
  0.32158959999999998       0.42298103999999997        0.0000000000000000     
  0.58861710000000000       0.31711036999999997        0.0000000000000000     
  0.42078418000000001       0.69497151999999995        0.0000000000000000     
  0.48608786999999998       0.89334152000000000        0.0000000000000000     
   9.7084320000000002E-002  0.50000000000000000        0.0000000000000000     
  0.90291568000000000       0.50000000000000000        0.0000000000000000     
  0.51392453000000005       0.10668648999999999        0.0000000000000000     
  0.59792566999999996       0.73122754000000001        0.0000000000000000     
  0.74510058999999995       0.41124730999999998        0.0000000000000000     
  0.73212551999999997       0.90191560000000004        0.0000000000000000     
   9.7784830000000003E-002  0.26957329000000002        0.0000000000000000     
  0.26711221000000002        9.8671499999999995E-002   0.0000000000000000     
  0.90191560000000004       0.26787448000000003        0.0000000000000000     
  0.90118569000000004       0.73039821000000005        0.0000000000000000     
  0.73122947000000005        9.8017859999999998E-002   0.0000000000000000     
   9.8084400000000002E-002  0.73212551999999997        0.0000000000000000     
  0.26957329000000002       0.90221516999999996        0.0000000000000000     
  0.39283522999999998       0.25360379000000000        0.0000000000000000     
  0.74480864000000002       0.60495284999999999        0.0000000000000000     
  0.25505132000000003       0.60593640999999998        0.0000000000000000     
  0.52159297999999998       0.40671636000000000        0.0000000000000000     
  0.40768852000000000       0.47699891000000000        0.0000000000000000     
   9.1467049999999994E-002   9.1876959999999994E-002   0.0000000000000000     
  0.90842484999999995       0.90819225000000003        0.0000000000000000     
  0.90820104999999995        9.1566729999999999E-002   0.0000000000000000     
   9.1807449999999999E-002  0.90843574000000005        0.0000000000000000     
  0.27098960000000000       0.20527094000000001        0.0000000000000000     
  0.73457293999999995       0.79835387000000002        0.0000000000000000     
  0.79817773000000003       0.25713470999999999        0.0000000000000000     
  0.20747797000000001       0.72863946000000002        0.0000000000000000     
  0.20175195000000001       0.27583914999999998        0.0000000000000000     
  0.79603889000000005       0.72159035000000005        0.0000000000000000     
  0.71761666000000002       0.19748431999999999        0.0000000000000000     
  0.28462607000000001       0.80251899999999998        0.0000000000000000     
  0.69134598999999997       0.49261972999999998        0.0000000000000000     
  0.44720578999999999       0.58582935999999997        0.0000000000000000     
  0.24242269999999999       0.37228174000000003        0.0000000000000000     
  0.38265623999999998       0.93072131999999996        0.0000000000000000     
  0.60971754000000000       0.91988369000000003        0.0000000000000000     
   7.9163609999999995E-002  0.60979116000000000        0.0000000000000000     
  0.92010649000000000       0.61081183999999999        0.0000000000000000     
  0.61954008999999999        7.1530830000000004E-002   0.0000000000000000     
  0.91882012999999996       0.38917363999999999        0.0000000000000000     
  0.39086346000000000        8.0652249999999995E-002   0.0000000000000000     
   7.9183480000000001E-002  0.38966213000000000        0.0000000000000000     
  0.59114111999999996       0.49294315000000000        0.0000000000000000     
  0.63337980999999999       0.64485914000000000        0.0000000000000000     
  0.50012352000000004       0.29676539000000002        0.0000000000000000     
  0.82552601000000003       0.92753492000000004        0.0000000000000000     
  0.92774772999999999       0.82498556999999995        0.0000000000000000     
   7.1970870000000006E-002  0.17510291000000000        0.0000000000000000     
  0.17422821999999999        7.2635640000000001E-002   0.0000000000000000     
  0.82510813000000005        7.2134840000000006E-002   0.0000000000000000     
  0.92754665000000003       0.17446275999999999        0.0000000000000000     
  0.17501022999999999       0.92789951999999998        0.0000000000000000     
   7.2464680000000004E-002  0.82554053000000005        0.0000000000000000     
  0.30731587999999999       0.50885354999999999        0.0000000000000000     
  0.59033407999999998       0.22171178999999999        0.0000000000000000     
  0.40109191999999999       0.78725542000000004        0.0000000000000000     
  0.35420917000000002       0.63754104000000000        0.0000000000000000     
  0.15983976999999999       0.56665573000000002        0.0000000000000000     
  0.84108459999999996       0.56757886999999996        0.0000000000000000     
  0.83902096000000004       0.43344338999999998        0.0000000000000000     
  0.43230028999999998       0.16004268999999999        0.0000000000000000     
  0.57536027999999995       0.83041363999999995        0.0000000000000000     
  0.15771898000000001       0.42747892999999998        0.0000000000000000     
  0.34021692999999997       0.34221559000000001        0.0000000000000000     
  0.56002271999999997       0.57501117999999996        0.0000000000000000     
  0.65344329000000001       0.78147597999999996        0.0000000000000000     
   0.0000000000000000        0.0000000000000000        0.0000000000000000     
   1.0000000000000000        0.0000000000000000        0.0000000000000000     
   1.0000000000000000        1.0000000000000000        0.0000000000000000     
   0.0000000000000000        1.0000000000000000        0.0000000000000000     
  0.11111111000000000        0.0000000000000000        0.0000000000000000     
  0.22222222000000000        0.0000000000000000        0.0000000000000000     
  0.33333332999999998        0.0000000000000000        0.0000000000000000     
  0.44444444000000000        0.0000000000000000        0.0000000000000000     
  0.55555555999999995        0.0000000000000000        0.0000000000000000     
  0.66666667000000002        0.0000000000000000        0.0000000000000000     
  0.77777777999999997        0.0000000000000000        0.0000000000000000     
  0.88888889000000004        0.0000000000000000        0.0000000000000000     
   1.0000000000000000       0.11111111000000000        0.0000000000000000     
   1.0000000000000000       0.22222222000000000        0.0000000000000000     
   1.0000000000000000       0.33333332999999998        0.0000000000000000     
   1.0000000000000000       0.44444444000000000        0.0000000000000000     
   1.0000000000000000       0.55555555999999995        0.0000000000000000     
   1.0000000000000000       0.66666667000000002        0.0000000000000000     
   1.0000000000000000       0.77777777999999997        0.0000000000000000     
   1.0000000000000000       0.88888889000000004        0.0000000000000000     
  0.88888889000000004        1.0000000000000000        0.0000000000000000     
  0.77777777999999997        1.0000000000000000        0.0000000000000000     
  0.66666667000000002        1.0000000000000000        0.0000000000000000     
  0.55555555999999995        1.0000000000000000        0.0000000000000000     
  0.44444444000000000        1.0000000000000000        0.0000000000000000     
  0.33333332999999998        1.0000000000000000        0.0000000000000000     
  0.22222222000000000        1.0000000000000000        0.0000000000000000     
  0.11111111000000000        1.0000000000000000        0.0000000000000000     
   0.0000000000000000       0.11111111000000000        0.0000000000000000     
   0.0000000000000000       0.22222222000000000        0.0000000000000000     
[...]
 CELL_DATA         354
 SCALARS V float
 LOOKUP_TABLE default
    0.23674953757636721906E-02
    0.73654496578374412455E-02
    0.17882581120414635985E-02
    0.18142035835902099207E-02
    0.27328445954461640620E-02
    0.32197242641590437945E-02
    0.11945844817483956130E-01
    0.70942454256611373054E-02
    0.13630338214112922360E-01
    0.14674369816556048080E-01
    0.17042370950002373037E-01
    0.16042544094614918926E-01
    0.17313064364090368502E-01
    0.17504819929961799863E-01
    0.17188173761064722694E-01
    0.17504986186311924379E-01
    0.16648753761460036160E-01
    0.15312302147107825778E-01
    0.10971859503750486242E-01
    0.14062090340645757441E-01
    0.94541826639429824009E-02
    0.11416919571095395999E-01
    0.13365988684729063901E-01
    0.12184892103403894073E-01
    0.13509473240439950209E-01
    0.13127276460695034427E-01
    0.98396391109523591301E-02
    0.12270833966597758519E-01
    0.72506979415693098914E-02
    0.51432502860326162475E-02
    0.26125660976573138530E-02
    0.29718749109399547614E-02
    0.24039958490513061752E-02
    0.21307967614804658278E-02
    0.18564244402827791668E-02
    0.19842708139447048227E-02
    0.18180867474732460669E-02
    0.18236917640340175907E-02
    0.19420183471546240573E-02
    0.18556221622851956123E-02
    0.19504461396944025239E-02
    0.19679349718037478928E-02
    0.20032511563467247928E-02
    0.19773219041012250752E-02
    0.19966759961565429433E-02
    0.18735698322255868974E-02
    0.18001200296713676819E-02
    0.18233448065125645952E-02
    0.17788728744242390985E-02
    0.17455707276691919370E-02
    0.17434652947070435232E-02
    0.17082941949404539285E-02
    0.24527552965902445908E-02
    0.24755441677718581332E-02
    0.26751493175707920756E-02
    0.25228006531558717918E-02
    0.26612199465537644469E-02
    0.25920365067937491468E-02
    0.24966882486972467696E-02
    0.25568010447003914308E-02
    0.24072045047561162721E-02
    0.22099123933547529242E-02
    0.19353394372825859053E-02
    0.20922083273892831332E-02
    0.18635196489496875030E-02
    0.17563448790534274494E-02
    0.16531710596119609212E-02
    0.16881186761486066759E-02
    0.17039772736117918261E-01
    0.16114363462279880646E-01
    0.15611442627342948103E-01
    0.16488503625735742575E-01
    0.15971865935316621049E-01
    0.16146501070696046842E-01
    0.14583796719280454207E-01
    0.13232902470522099961E-01
    0.13641673718503258619E-01
    0.15258887156258917756E-01
    0.10310364835521810406E-01
    0.12124513723848762137E-01
    0.44651918154863298044E-02
    0.83228766452825963390E-02
    0.12560233134803696492E-01
    0.59308980882738244339E-02
    0.16535089073352046002E-01
    0.17001268517095775856E-01
    0.14740583173999823041E-01
    0.17094873821446462947E-01
    0.16781286267468650819E-01
    0.17731956531097665952E-01
    0.16398981160471351459E-01
    0.63755468436970542251E-02
    0.58454305851110034686E-02
    0.31673270932611437625E-02
    0.29962231555062551237E-02
    0.33725954269522217741E-02
    0.85029063126354047231E-02
    0.12900504155112599985E-01
    0.15956094414887038446E-01
    0.13986953531368771786E-01
    0.15440854118236493897E-01
    0.12963952506516948984E-01
    0.14489339243922575232E-01
    0.17793902303123373954E-01
    0.17725207198450179669E-01
    0.18134649163156154467E-01
    0.18275098446867595048E-01
    0.17556304054320927971E-01
    0.10515301992789879287E-01
    0.80317364066429738911E-02
    0.31010923234979980920E-02
    0.76092558433035941551E-02
    0.39091499821386549093E-02
    0.36791569006379880660E-02
    0.13434274121886156939E-01
    0.54048142062415914857E-02
    0.10224494459141938649E-01
    0.13322035906152798063E-01
    0.12952682777590396671E-01
    0.56779033076880033176E-02
    0.10338097825241835889E-01
    0.23567006950644185485E-02
    0.26933577890000644575E-02
    0.21739160031003920345E-02
    0.28642300199716798532E-02
    0.31000527538597795647E-02
    0.21636816538142694157E-02
    0.23163696089889031227E-02
    0.65405717672349320685E-02
    0.11802181875239424469E-01
    0.39875232877584314284E-02
    0.12523165807818956857E-01
    0.10868801346358850438E-01
    0.34187764368259466151E-02
    0.79662437809423503055E-02
    0.14431472387816998010E-01
    0.16029047543111251545E-01
    0.14005881977482242257E-01
    0.15580115237575261830E-01
    0.16288324358638795603E-01
    0.14906324864594266283E-01
    0.13696789528171937622E-01
    0.20241916746724215002E-02
    0.19435027528652806979E-02
    0.17772951593789546119E-02
    0.23102147663398718731E-02
    0.22321355452104502462E-02
    0.18021538339647509043E-02
    0.18323056160036194258E-02
    0.16057060407372942407E-01
    0.16912833102121820061E-01
    0.17697001009781061776E-01
    0.16354152904028074894E-01
    0.18215519759975665193E-01
    0.16392444591971238460E-01
    0.13915839133706664824E-01
    0.15512040298673146488E-01
    0.16281411461428051124E-01
    0.13765646174926184087E-01
    0.15302402110079035835E-01
    0.12265893856258296840E-01
    0.14905786025820294549E-01
    0.14111641085776352456E-01
    0.13194993753726413227E-01
    0.13214358003676356795E-01
    0.25960598166532931202E-02
    0.30878043207443650782E-02
    0.26105196793533725491E-02
    0.29723595310245142301E-02
    0.32382265905167642583E-02
    0.13861395051397553194E-01
    0.16306611976174886086E-01
    0.14797755123166384320E-01
    0.14989510824065493955E-01
    0.16166743301543225197E-01
    0.69155810065062535072E-02
    0.11227484050409500607E-01
    0.12511171280633436378E-01
    0.51630431526299425116E-02
    0.94773962947491460079E-02
    0.15983390337840561179E-01
    0.14314775845946956651E-01
    0.15497564234530285948E-01
    0.13873053697823788111E-01
    0.14931758431357865929E-01
    0.41424657643191215711E-02
    0.12079302456297152935E-01
    0.79061097375357890921E-02
    0.73516976035142957493E-02
    0.11491185124230127168E-01
    0.17516944202428483268E-01
    0.17241399381160975313E-01
    0.17275146594404128253E-01
    0.17492619179570730731E-01
    0.18379183144919868098E-01
    0.25382909002131534906E-02
    0.34163015408456166161E-02
    0.27908211643344503147E-02
    0.27540807423377627709E-02
    0.31817394075897868430E-02
    0.23192720602599314200E-02
    0.21965496587367750944E-02
    0.24390686945516128030E-02
    0.21549477265209262579E-02
    0.26008854423568970350E-02
    0.16286340399544761703E-01
    0.17313684475668326967E-01
    0.17297400034438713268E-01
    0.16979653584580658987E-01
    0.17478417865192552583E-01
    0.11926999830334565622E-01
    0.11586708380815345654E-01
    0.13257841012721240104E-01
    0.12694666412406397510E-01
    0.13632027727255550606E-01
    0.15440311891032416219E-01
    0.13664757423705776659E-01
    0.13865036146978501272E-01
    0.15185379802217884720E-01
    0.15458303144330070092E-01
    0.13562066131906184985E-01
    0.13066533746324934112E-01
    0.13112640487714138232E-01
    0.42985700794386186990E-02
    0.11382425718844863677E-01
    0.21259859077939194036E-02
    0.22915093886737595771E-02
    0.27556541518643598056E-02
    0.27534124259869854900E-02
    0.27259639113949162177E-02
    0.30651049708774846629E-02
    0.33913815140275099629E-02
    0.50771831764740574591E-02
    0.91973559984556089303E-02
    0.12044277322884901910E-01
    0.11728434541315214262E-01
    0.12720759796155578850E-01
    0.17418679577913636497E-01
    0.16885488680945817674E-01
    0.18436393912845683296E-01
    0.16999036383136684192E-01
    0.12505900426727074165E-01
    0.40789994764235696853E-02
    0.58388818408034873567E-02
    0.16216220340897355423E-01
    0.15870512095066558605E-01
    0.27120906399569744659E-02
    0.22513736167172186155E-02
    0.20748397599123663028E-02
    0.92430354538136361153E-02
    0.34495330720565485147E-02
    0.30889428261887882932E-02
    0.12964462000215516355E-01
    0.14074412963447507224E-01
    0.10640583722898420277E-01
    0.14972884988904009568E-01
    0.13577353806208791037E-01
    0.13551066772666556237E-01
    0.35854683345143164956E-02
    0.35435363808821798703E-02
    0.24592061125228662638E-02
    0.16700018774991359782E-01
    0.17383199337241576898E-01
    0.16055971538283940470E-01
    0.23955750537448397899E-02
    0.23061774315215636741E-02
    0.18872602684944415029E-02
    0.22217875864568728886E-02
    0.19874782646779384082E-02
    0.17949167580052082134E-02
    0.16064673592507197619E-01
    0.18071341767610122481E-01
    0.16821655120778468417E-01
    0.16430790671374650991E-01
    0.11165824263466246624E-01
    0.14770640278059268130E-01
    0.12728238477956069913E-01
    0.12840979900252305623E-01
    0.33570773610457228103E-02
    0.12318446190725012429E-01
    0.10653753203778797837E-01
    0.53724247295341490127E-02
    0.17041780359671212380E-01
    0.17424905745872007468E-01
    0.16811450696821498424E-01
    0.15369657352729472477E-01
    0.14846535472414322185E-01
    0.29014164009918668591E-02
    0.38190998704337479272E-02
    0.19587786582745759026E-02
    0.20718798424085240091E-02
    0.13839500344700470663E-01
    0.12831112153517388458E-01
    0.16579834272076178318E-02
    0.16804248270613575747E-02
    0.12642775718661874995E-01
    0.39930107275147402532E-02
    0.36581324849833921249E-02
    0.16427617111238509984E-01
    0.26252712045626205167E-02
    0.12753749991375925785E-01
    0.18513444289850543301E-01
    0.27564469047566147498E-02
    0.16359093450147948329E-01
    0.13584362344702463621E-01
    0.14725685394390324728E-01
    0.12631097137245965445E-01
    0.14389104604717520633E-01
    0.26703879662319787366E-02
    0.29701633313893760664E-02
    0.10569956918240936555E-01
    0.13147428374034198645E-01
    0.16354868121947575138E-01
    0.48269742698038332895E-02
    0.16381038863629404645E-01
    0.13802213066805159303E-01
    0.15121861646378003535E-01
    0.34455658053040259803E-02
    0.23440342158273382543E-02
    0.20907321709411914173E-02
    0.56703626432622550660E-02
    0.47752490857729291973E-02
    0.17575895654329629775E-02
    0.17251723842184349227E-02
    0.18642008310880199030E-02
    0.17629827819840289231E-02
    0.31365636481563352253E-02
    0.82940229071410062622E-02
    0.91330667369598564354E-02
    0.10170753204003070772E-01
    0.10472882948812444609E-01
    0.10046658397406132285E-01
    0.90153375178620952235E-02
    0.72687358462866398512E-02
    0.85162176468152484682E-02
    0.80958333645231618514E-02
    0.54529001886861752993E-02
    0.27071099106301468873E-02
    0.22751095889064869293E-02
    0.19670201467067061248E-02
    0.17419140220562823705E-02
    0.17743087944781475978E-02
    0.17940854677981879408E-02
    0.17928047584508720411E-02
    0.17500118254503401263E-02
    0.17173179821521984342E-02
    0.17600788489046152122E-02
    0.22178386684879418389E-02
    0.22753434014371664781E-02
    0.22322782079525526136E-02
    0.21257836841318137125E-02
    0.19494815001604237983E-02
    0.17883614888110268420E-02
    0.17241921971911501697E-02
