# vtk DataFile Version 3.0
LAPLACIEN  2D
ASCII
DATASET UNSTRUCTURED_GRID
 POINTS         391  float
  0.50371505999999999       0.50367786999999997        0.0000000000000000     
  0.29013556000000001       0.29014535000000002        0.0000000000000000     
  0.70165584999999997       0.71206597999999999        0.0000000000000000     
  0.70304188999999995       0.30176619999999998        0.0000000000000000     
  0.30920671999999999       0.71149227999999998        0.0000000000000000     
  0.79044983999999996       0.49884783999999999        0.0000000000000000     
  0.49102621000000002       0.20968644000000000        0.0000000000000000     
  0.49912957000000002       0.77208717000000004        0.0000000000000000     
  0.21724072999999999       0.48989389000000000        0.0000000000000000     
  0.83255933999999998       0.83046598000000005        0.0000000000000000     
  0.16646774000000000       0.17015694000000001        0.0000000000000000     
  0.83054514999999995       0.16736480000000001        0.0000000000000000     
  0.16953130999999999       0.83265739000000005        0.0000000000000000     
  0.42166445000000002       0.36345201999999999        0.0000000000000000     
  0.64462200999999997       0.56347807999999999        0.0000000000000000     
  0.35324633999999999       0.56311191000000005        0.0000000000000000     
  0.65456411000000003       0.84856860999999995        0.0000000000000000     
  0.35141477999999998       0.15563974000000000        0.0000000000000000     
  0.15290967000000000       0.35206625000000003        0.0000000000000000     
  0.82942241000000005       0.34936866000000000        0.0000000000000000     
  0.84390527000000004       0.64441694999999999        0.0000000000000000     
  0.63699174999999997       0.14284276000000001        0.0000000000000000     
  0.15620682999999999       0.64648446999999998        0.0000000000000000     
  0.36426062999999997       0.85756310999999996        0.0000000000000000     
  0.63489340999999999       0.40519052000000000        0.0000000000000000     
  0.52518872999999999       0.65957078000000002        0.0000000000000000     
  0.32158959999999998       0.42298103999999997        0.0000000000000000     
  0.58861710000000000       0.31711036999999997        0.0000000000000000     
  0.42078418000000001       0.69497151999999995        0.0000000000000000     
  0.48608786999999998       0.89334152000000000        0.0000000000000000     
   9.7084320000000002E-002  0.50000000000000000        0.0000000000000000     
  0.90291568000000000       0.50000000000000000        0.0000000000000000     
  0.51392453000000005       0.10668648999999999        0.0000000000000000     
  0.59792566999999996       0.73122754000000001        0.0000000000000000     
  0.74510058999999995       0.41124730999999998        0.0000000000000000     
  0.73212551999999997       0.90191560000000004        0.0000000000000000     
   9.7784830000000003E-002  0.26957329000000002        0.0000000000000000     
  0.26711221000000002        9.8671499999999995E-002   0.0000000000000000     
  0.90191560000000004       0.26787448000000003        0.0000000000000000     
  0.90118569000000004       0.73039821000000005        0.0000000000000000     
  0.73122947000000005        9.8017859999999998E-002   0.0000000000000000     
   9.8084400000000002E-002  0.73212551999999997        0.0000000000000000     
  0.26957329000000002       0.90221516999999996        0.0000000000000000     
  0.39283522999999998       0.25360379000000000        0.0000000000000000     
  0.74480864000000002       0.60495284999999999        0.0000000000000000     
  0.25505132000000003       0.60593640999999998        0.0000000000000000     
  0.52159297999999998       0.40671636000000000        0.0000000000000000     
  0.40768852000000000       0.47699891000000000        0.0000000000000000     
   9.1467049999999994E-002   9.1876959999999994E-002   0.0000000000000000     
  0.90842484999999995       0.90819225000000003        0.0000000000000000     
  0.90820104999999995        9.1566729999999999E-002   0.0000000000000000     
   9.1807449999999999E-002  0.90843574000000005        0.0000000000000000     
  0.27098960000000000       0.20527094000000001        0.0000000000000000     
  0.73457293999999995       0.79835387000000002        0.0000000000000000     
  0.79817773000000003       0.25713470999999999        0.0000000000000000     
  0.20747797000000001       0.72863946000000002        0.0000000000000000     
  0.20175195000000001       0.27583914999999998        0.0000000000000000     
  0.79603889000000005       0.72159035000000005        0.0000000000000000     
  0.71761666000000002       0.19748431999999999        0.0000000000000000     
  0.28462607000000001       0.80251899999999998        0.0000000000000000     
  0.69134598999999997       0.49261972999999998        0.0000000000000000     
  0.44720578999999999       0.58582935999999997        0.0000000000000000     
  0.24242269999999999       0.37228174000000003        0.0000000000000000     
  0.38265623999999998       0.93072131999999996        0.0000000000000000     
  0.60971754000000000       0.91988369000000003        0.0000000000000000     
   7.9163609999999995E-002  0.60979116000000000        0.0000000000000000     
  0.92010649000000000       0.61081183999999999        0.0000000000000000     
  0.61954008999999999        7.1530830000000004E-002   0.0000000000000000     
  0.91882012999999996       0.38917363999999999        0.0000000000000000     
  0.39086346000000000        8.0652249999999995E-002   0.0000000000000000     
   7.9183480000000001E-002  0.38966213000000000        0.0000000000000000     
  0.59114111999999996       0.49294315000000000        0.0000000000000000     
  0.63337980999999999       0.64485914000000000        0.0000000000000000     
  0.50012352000000004       0.29676539000000002        0.0000000000000000     
  0.82552601000000003       0.92753492000000004        0.0000000000000000     
  0.92774772999999999       0.82498556999999995        0.0000000000000000     
   7.1970870000000006E-002  0.17510291000000000        0.0000000000000000     
  0.17422821999999999        7.2635640000000001E-002   0.0000000000000000     
  0.82510813000000005        7.2134840000000006E-002   0.0000000000000000     
  0.92754665000000003       0.17446275999999999        0.0000000000000000     
  0.17501022999999999       0.92789951999999998        0.0000000000000000     
   7.2464680000000004E-002  0.82554053000000005        0.0000000000000000     
  0.30731587999999999       0.50885354999999999        0.0000000000000000     
  0.59033407999999998       0.22171178999999999        0.0000000000000000     
  0.40109191999999999       0.78725542000000004        0.0000000000000000     
  0.35420917000000002       0.63754104000000000        0.0000000000000000     
  0.15983976999999999       0.56665573000000002        0.0000000000000000     
  0.84108459999999996       0.56757886999999996        0.0000000000000000     
  0.83902096000000004       0.43344338999999998        0.0000000000000000     
  0.43230028999999998       0.16004268999999999        0.0000000000000000     
  0.57536027999999995       0.83041363999999995        0.0000000000000000     
  0.15771898000000001       0.42747892999999998        0.0000000000000000     
  0.34021692999999997       0.34221559000000001        0.0000000000000000     
  0.56002271999999997       0.57501117999999996        0.0000000000000000     
  0.65344329000000001       0.78147597999999996        0.0000000000000000     
   0.0000000000000000        0.0000000000000000        0.0000000000000000     
   1.0000000000000000        0.0000000000000000        0.0000000000000000     
   1.0000000000000000        1.0000000000000000        0.0000000000000000     
   0.0000000000000000        1.0000000000000000        0.0000000000000000     
  0.11111111000000000        0.0000000000000000        0.0000000000000000     
  0.22222222000000000        0.0000000000000000        0.0000000000000000     
  0.33333332999999998        0.0000000000000000        0.0000000000000000     
  0.44444444000000000        0.0000000000000000        0.0000000000000000     
  0.55555555999999995        0.0000000000000000        0.0000000000000000     
  0.66666667000000002        0.0000000000000000        0.0000000000000000     
  0.77777777999999997        0.0000000000000000        0.0000000000000000     
  0.88888889000000004        0.0000000000000000        0.0000000000000000     
   1.0000000000000000       0.11111111000000000        0.0000000000000000     
   1.0000000000000000       0.22222222000000000        0.0000000000000000     
   1.0000000000000000       0.33333332999999998        0.0000000000000000     
   1.0000000000000000       0.44444444000000000        0.0000000000000000     
   1.0000000000000000       0.55555555999999995        0.0000000000000000     
   1.0000000000000000       0.66666667000000002        0.0000000000000000     
   1.0000000000000000       0.77777777999999997        0.0000000000000000     
   1.0000000000000000       0.88888889000000004        0.0000000000000000     
  0.88888889000000004        1.0000000000000000        0.0000000000000000     
  0.77777777999999997        1.0000000000000000        0.0000000000000000     
  0.66666667000000002        1.0000000000000000        0.0000000000000000     
  0.55555555999999995        1.0000000000000000        0.0000000000000000     
  0.44444444000000000        1.0000000000000000        0.0000000000000000     
  0.33333332999999998        1.0000000000000000        0.0000000000000000     
  0.22222222000000000        1.0000000000000000        0.0000000000000000     
  0.11111111000000000        1.0000000000000000        0.0000000000000000     
   0.0000000000000000       0.11111111000000000        0.0000000000000000     
   0.0000000000000000       0.22222222000000000        0.0000000000000000     
[...]
 CELL_DATA         354
 SCALARS V float
 LOOKUP_TABLE default
    0.23121278776027705953E-02
    0.72311585183393017190E-02
    0.17482063454127179380E-02
    0.17754832550603827628E-02
    0.26687642236220025446E-02
    0.31496298155447694476E-02
    0.11670624450163714567E-01
    0.69337680078129255296E-02
    0.13320143594511881999E-01
    0.14340114950929100379E-01
    0.16652982764802218285E-01
    0.15673952887489940589E-01
    0.16923584374113460893E-01
    0.17109684783508938288E-01
    0.16796196804680772752E-01
    0.17106555807432220762E-01
    0.16266191438900984290E-01
    0.14959082774667058213E-01
    0.10729121173641657794E-01
    0.13724767959561855885E-01
    0.92525521513717717131E-02
    0.11168623942737633536E-01
    0.13065141520575678652E-01
    0.11916976944924235343E-01
    0.13203058566616125702E-01
    0.12829163823310583969E-01
    0.96185317555898281611E-02
    0.11988194756765525872E-01
    0.70986698910637160281E-02
    0.50308596896539757928E-02
    0.25519892525949581380E-02
    0.29042034086213053615E-02
    0.23477825726233867223E-02
    0.20811887289672727046E-02
    0.18141330276144152032E-02
    0.19385636762104955025E-02
    0.17769156225778445345E-02
    0.17822664341504506312E-02
    0.18973122104396760584E-02
    0.18131503252050143113E-02
    0.19056309933891603815E-02
    0.19226272478989141733E-02
    0.19570449600640163652E-02
    0.19317151445510331170E-02
    0.19505340944386377611E-02
    0.18304963447715249473E-02
    0.17592413673488817120E-02
    0.17817872164800721037E-02
    0.17387374455984177211E-02
    0.17066144185998648013E-02
    0.17056417079918807615E-02
    0.16709006510219762479E-02
    0.23951743270491320480E-02
    0.24173498967805960233E-02
    0.26124454516082622028E-02
    0.24636020790816505824E-02
    0.25996151216834072727E-02
    0.25319290967632268087E-02
    0.24383511901424357107E-02
    0.24970286073824395773E-02
    0.23509898537935939276E-02
    0.21584539526874769316E-02
    0.18908963676681044951E-02
    0.20437617697652865102E-02
    0.18209617322977717478E-02
    0.17166695623181561087E-02
    0.16172742200254140461E-02
    0.16507424453302179789E-02
    0.16673670131595281357E-01
    0.15749930510122515936E-01
    0.15249097858277594481E-01
    0.16128287486256935590E-01
    0.15601236725824391138E-01
    0.15775496587265895598E-01
    0.14241586668723334175E-01
    0.12927172927220313345E-01
    0.13326629254634538707E-01
    0.14909075637015288540E-01
    0.10070497086472975784E-01
    0.11833733835282116836E-01
    0.43751638825764776683E-02
    0.81278778660493593289E-02
    0.12264024589014224653E-01
    0.58039769553799979568E-02
    0.16172887988489842437E-01
    0.16650698510179685191E-01
    0.14491462362694145644E-01
    0.16721718818233588522E-01
    0.16420060344869570612E-01
    0.17355160245297308191E-01
    0.16078232094598729485E-01
    0.62304751630132236551E-02
    0.57082890517100096095E-02
    0.30955054015366261291E-02
    0.29260418493014762539E-02
    0.32977084813114185616E-02
    0.83007767278567134300E-02
    0.12598008172691270087E-01
    0.15586734086832618879E-01
    0.13662224300378694730E-01
    0.15082281334139111678E-01
    0.12663994659122962405E-01
    0.14149894247195557093E-01
    0.17420347600185875914E-01
    0.17347777460027850871E-01
    0.17749608950297368626E-01
    0.17888009343672583301E-01
    0.17183374411441625085E-01
    0.10259043013242246517E-01
    0.78481478331592288700E-02
    0.30276587327632891941E-02
    0.74288177490436247546E-02
    0.38248875742663622328E-02
    0.35985959862217722222E-02
    0.13125093769224466245E-01
    0.52896791421747184347E-02
    0.99781257455202020112E-02
    0.12999152267136996480E-01
    0.12644777791683409207E-01
    0.55520729355384278864E-02
    0.10087856079702028911E-01
    0.23016670549850389536E-02
    0.26304735044545882704E-02
    0.21233388228574139392E-02
    0.27970343628846987445E-02
    0.30274269335260617364E-02
    0.21135838370404920819E-02
    0.22624039306564395699E-02
    0.63927508533345627287E-02
    0.11517035574518646318E-01
    0.39045451653147021827E-02
    0.12224527472057282809E-01
    0.10613484569899139451E-01
    0.33443629969971823239E-02
    0.77844306769314208089E-02
    0.14098028925424313865E-01
    0.15665736775398973746E-01
    0.13682798902484628184E-01
    0.15221675889589917838E-01
    0.15933075578291315544E-01
    0.14564474988795992130E-01
    0.13382588807513518675E-01
    0.19774556210836189210E-02
    0.18988233060395092767E-02
    0.17369653774227044544E-02
    0.22562067170676632435E-02
    0.21800563370426317457E-02
    0.17611928664953511309E-02
    0.17905521283704574353E-02
    0.15703065229055616914E-01
    0.16560953813389414635E-01
    0.17316065991569665194E-01
    0.16000927214254064002E-01
    0.17828011207227160290E-01
    0.16039187142471839770E-01
    0.13593947369372277878E-01
    0.15153715647516673853E-01
    0.15906069302241761243E-01
    0.13446418235064247493E-01
    0.14943280951019497285E-01
    0.11975422975048034824E-01
    0.14559344234225231329E-01
    0.13784073277434761781E-01
    0.12889259531881922319E-01
    0.12899272972665845258E-01
    0.25348077557842542233E-02
    0.30147021925238659534E-02
    0.25486569865366603613E-02
    0.29026393111471868354E-02
    0.31623586107292684690E-02
    0.13545822629177447019E-01
    0.15937442011320662738E-01
    0.14454736990660898080E-01
    0.14649808638285809897E-01
    0.15805029259632712851E-01
    0.67565743298519049045E-02
    0.10954356491362601811E-01
    0.12204557040815198002E-01
    0.50542063877788969903E-02
    0.92526917492908103413E-02
    0.15624994909843058222E-01
    0.13987940435505056419E-01
    0.15145595572307251481E-01
    0.13554633727928045925E-01
    0.14582385338692308366E-01
    0.40537359618978557885E-02
    0.11787744696600108499E-01
    0.77201329929869801777E-02
    0.71777927787184600539E-02
    0.11212392836252209685E-01
    0.17156576801580690483E-01
    0.16870617233668755430E-01
    0.16932407530999386835E-01
    0.17119938471241484546E-01
    0.18006934240992610030E-01
    0.24783138862421848908E-02
    0.33389891233322806924E-02
    0.27255398759125238489E-02
    0.26887674210782563575E-02
    0.31093145870665223063E-02
    0.22654917468407109217E-02
    0.21451371693644127707E-02
    0.23818985138648676725E-02
    0.21047630218943534641E-02
    0.25402675092529858336E-02
    0.15974171882199652422E-01
    0.16935527546074389399E-01
    0.16936399734363689201E-01
    0.16613779664267629144E-01
    0.17098663021144072660E-01
    0.11641545883206901382E-01
    0.11305455155017345159E-01
    0.12946016424962888958E-01
    0.12398626694437867718E-01
    0.13317445802773338059E-01
    0.15087111818067948724E-01
    0.13348788241880637367E-01
    0.13546865753190032861E-01
    0.14837479650562687694E-01
    0.15184557664360189694E-01
    0.13355056503585201882E-01
    0.12874131396156472673E-01
    0.12793550318823551648E-01
    0.42094378498009812212E-02
    0.11106457326476158742E-01
    0.20766158365582145992E-02
    0.22379558894814574783E-02
    0.26909001876063497020E-02
    0.26887222247992544587E-02
    0.26616711955937373893E-02
    0.29949133988103745704E-02
    0.33175758129857114281E-02
    0.49655029497689120652E-02
    0.89952989569401283626E-02
    0.11765206499457239731E-01
    0.11460554966607652827E-01
    0.12427157192345505282E-01
    0.17039183957744744036E-01
    0.16501210427083874005E-01
    0.18049837614028438337E-01
    0.16629828195589575063E-01
    0.12209042265387048953E-01
    0.39930424728853554719E-02
    0.57099447618764610085E-02
    0.15855648622981194373E-01
    0.15500923670102216556E-01
    0.26482486296196105363E-02
    0.21986445409317447418E-02
    0.20268498178853218070E-02
    0.90239866321532354737E-02
    0.33765049108545981335E-02
    0.30215332223661340444E-02
    0.12659801528285795358E-01
    0.13756236889365051901E-01
    0.10387701625143925394E-01
    0.14623836245552716481E-01
    0.13270257065594631002E-01
    0.13243899046201365599E-01
    0.35054751413062051023E-02
    0.34651964832008246530E-02
    0.24017449809078123685E-02
    0.16344439296193221528E-01
    0.16991825515820374592E-01
    0.15686710608579061688E-01
    0.23393997255358829276E-02
    0.22520657946317143051E-02
    0.18440852415061317979E-02
    0.21699422649167545568E-02
    0.19414857473017120039E-02
    0.17541974972598052551E-02
    0.15689389362869447797E-01
    0.17689252772167665673E-01
    0.16456137579713599195E-01
    0.16067821952169710625E-01
    0.10894122738419224211E-01
    0.14424295190953295015E-01
    0.12434161222307178740E-01
    0.12540370011813743029E-01
    0.32813415986539763367E-02
    0.12024642020680844506E-01
    0.10394442022975229623E-01
    0.52504319682864838276E-02
    0.16667921805368898780E-01
    0.17052274172901959320E-01
    0.16481072234944313393E-01
    0.15014383795201636379E-01
    0.14502523693477835723E-01
    0.28339270115484440325E-02
    0.37395407099670785814E-02
    0.19137155589692728553E-02
    0.20238267253132559073E-02
    0.13508354221975337611E-01
    0.12539668812664930483E-01
    0.16211108794955673452E-02
    0.16428064914894419373E-02
    0.12346005807722302411E-01
    0.39061662914276463164E-02
    0.35802159987961294438E-02
    0.16081249775151441883E-01
    0.25634329192760103855E-02
    0.12453345060603693284E-01
    0.18124020685841027434E-01
    0.26921598124574784225E-02
    0.15997695248394588896E-01
    0.13257591100067885395E-01
    0.14382093143008574040E-01
    0.12315105133253546887E-01
    0.14053913561330746984E-01
    0.26073440492187334103E-02
    0.28998894662002742441E-02
    0.10324082060897956867E-01
    0.12842621250777789405E-01
    0.15985472215757069031E-01
    0.47209232740880726839E-02
    0.16001926521653463131E-01
    0.13481132411159158641E-01
    0.14839162835090170117E-01
    0.33693152370005323773E-02
    0.22891129495484956527E-02
    0.20423109662386978655E-02
    0.55616992226556454665E-02
    0.46759456093056718171E-02
    0.17184831078935858088E-02
    0.16870443393302149253E-02
    0.18249621194591338427E-02
    0.17260175705863882965E-02
    0.30681718084571967670E-02
    0.81035829978528921280E-02
    0.89243956693440314870E-02
    0.99402519786801583901E-02
    0.10234947053223277663E-01
    0.98172158672508134936E-02
    0.88061668072565088550E-02
    0.71093088725427281208E-02
    0.83223714092848614932E-02
    0.79114590223529554502E-02
    0.53356320382348127601E-02
    0.26455368071402881811E-02
    0.22221675029425618821E-02
    0.19217948650042452046E-02
    0.17027380514508774940E-02
    0.17340079801921334888E-02
    0.17531535450748246020E-02
    0.17519605254295777738E-02
    0.17103894235647515085E-02
    0.16789561315815658502E-02
    0.17216748157717815838E-02
    0.21661966331649146027E-02
    0.22223471652373233409E-02
    0.21802765747700732051E-02
    0.20764247718084100428E-02
    0.19045262256921888146E-02
    0.17478018324452665802E-02
    0.16860880323464888519E-02
