# vtk DataFile Version 3.0
LAPLACIEN  2D
ASCII
DATASET UNSTRUCTURED_GRID
 POINTS         391  float
  0.50371505999999999       0.50367786999999997        0.0000000000000000     
  0.29013556000000001       0.29014535000000002        0.0000000000000000     
  0.70165584999999997       0.71206597999999999        0.0000000000000000     
  0.70304188999999995       0.30176619999999998        0.0000000000000000     
  0.30920671999999999       0.71149227999999998        0.0000000000000000     
  0.79044983999999996       0.49884783999999999        0.0000000000000000     
  0.49102621000000002       0.20968644000000000        0.0000000000000000     
  0.49912957000000002       0.77208717000000004        0.0000000000000000     
  0.21724072999999999       0.48989389000000000        0.0000000000000000     
  0.83255933999999998       0.83046598000000005        0.0000000000000000     
  0.16646774000000000       0.17015694000000001        0.0000000000000000     
  0.83054514999999995       0.16736480000000001        0.0000000000000000     
  0.16953130999999999       0.83265739000000005        0.0000000000000000     
  0.42166445000000002       0.36345201999999999        0.0000000000000000     
  0.64462200999999997       0.56347807999999999        0.0000000000000000     
  0.35324633999999999       0.56311191000000005        0.0000000000000000     
  0.65456411000000003       0.84856860999999995        0.0000000000000000     
  0.35141477999999998       0.15563974000000000        0.0000000000000000     
  0.15290967000000000       0.35206625000000003        0.0000000000000000     
  0.82942241000000005       0.34936866000000000        0.0000000000000000     
  0.84390527000000004       0.64441694999999999        0.0000000000000000     
  0.63699174999999997       0.14284276000000001        0.0000000000000000     
  0.15620682999999999       0.64648446999999998        0.0000000000000000     
  0.36426062999999997       0.85756310999999996        0.0000000000000000     
  0.63489340999999999       0.40519052000000000        0.0000000000000000     
  0.52518872999999999       0.65957078000000002        0.0000000000000000     
  0.32158959999999998       0.42298103999999997        0.0000000000000000     
  0.58861710000000000       0.31711036999999997        0.0000000000000000     
  0.42078418000000001       0.69497151999999995        0.0000000000000000     
  0.48608786999999998       0.89334152000000000        0.0000000000000000     
   9.7084320000000002E-002  0.50000000000000000        0.0000000000000000     
  0.90291568000000000       0.50000000000000000        0.0000000000000000     
  0.51392453000000005       0.10668648999999999        0.0000000000000000     
  0.59792566999999996       0.73122754000000001        0.0000000000000000     
  0.74510058999999995       0.41124730999999998        0.0000000000000000     
  0.73212551999999997       0.90191560000000004        0.0000000000000000     
   9.7784830000000003E-002  0.26957329000000002        0.0000000000000000     
  0.26711221000000002        9.8671499999999995E-002   0.0000000000000000     
  0.90191560000000004       0.26787448000000003        0.0000000000000000     
  0.90118569000000004       0.73039821000000005        0.0000000000000000     
  0.73122947000000005        9.8017859999999998E-002   0.0000000000000000     
   9.8084400000000002E-002  0.73212551999999997        0.0000000000000000     
  0.26957329000000002       0.90221516999999996        0.0000000000000000     
  0.39283522999999998       0.25360379000000000        0.0000000000000000     
  0.74480864000000002       0.60495284999999999        0.0000000000000000     
  0.25505132000000003       0.60593640999999998        0.0000000000000000     
  0.52159297999999998       0.40671636000000000        0.0000000000000000     
  0.40768852000000000       0.47699891000000000        0.0000000000000000     
   9.1467049999999994E-002   9.1876959999999994E-002   0.0000000000000000     
  0.90842484999999995       0.90819225000000003        0.0000000000000000     
  0.90820104999999995        9.1566729999999999E-002   0.0000000000000000     
   9.1807449999999999E-002  0.90843574000000005        0.0000000000000000     
  0.27098960000000000       0.20527094000000001        0.0000000000000000     
  0.73457293999999995       0.79835387000000002        0.0000000000000000     
  0.79817773000000003       0.25713470999999999        0.0000000000000000     
  0.20747797000000001       0.72863946000000002        0.0000000000000000     
  0.20175195000000001       0.27583914999999998        0.0000000000000000     
  0.79603889000000005       0.72159035000000005        0.0000000000000000     
  0.71761666000000002       0.19748431999999999        0.0000000000000000     
  0.28462607000000001       0.80251899999999998        0.0000000000000000     
  0.69134598999999997       0.49261972999999998        0.0000000000000000     
  0.44720578999999999       0.58582935999999997        0.0000000000000000     
  0.24242269999999999       0.37228174000000003        0.0000000000000000     
  0.38265623999999998       0.93072131999999996        0.0000000000000000     
  0.60971754000000000       0.91988369000000003        0.0000000000000000     
   7.9163609999999995E-002  0.60979116000000000        0.0000000000000000     
  0.92010649000000000       0.61081183999999999        0.0000000000000000     
  0.61954008999999999        7.1530830000000004E-002   0.0000000000000000     
  0.91882012999999996       0.38917363999999999        0.0000000000000000     
  0.39086346000000000        8.0652249999999995E-002   0.0000000000000000     
   7.9183480000000001E-002  0.38966213000000000        0.0000000000000000     
  0.59114111999999996       0.49294315000000000        0.0000000000000000     
  0.63337980999999999       0.64485914000000000        0.0000000000000000     
  0.50012352000000004       0.29676539000000002        0.0000000000000000     
  0.82552601000000003       0.92753492000000004        0.0000000000000000     
  0.92774772999999999       0.82498556999999995        0.0000000000000000     
   7.1970870000000006E-002  0.17510291000000000        0.0000000000000000     
  0.17422821999999999        7.2635640000000001E-002   0.0000000000000000     
  0.82510813000000005        7.2134840000000006E-002   0.0000000000000000     
  0.92754665000000003       0.17446275999999999        0.0000000000000000     
  0.17501022999999999       0.92789951999999998        0.0000000000000000     
   7.2464680000000004E-002  0.82554053000000005        0.0000000000000000     
  0.30731587999999999       0.50885354999999999        0.0000000000000000     
  0.59033407999999998       0.22171178999999999        0.0000000000000000     
  0.40109191999999999       0.78725542000000004        0.0000000000000000     
  0.35420917000000002       0.63754104000000000        0.0000000000000000     
  0.15983976999999999       0.56665573000000002        0.0000000000000000     
  0.84108459999999996       0.56757886999999996        0.0000000000000000     
  0.83902096000000004       0.43344338999999998        0.0000000000000000     
  0.43230028999999998       0.16004268999999999        0.0000000000000000     
  0.57536027999999995       0.83041363999999995        0.0000000000000000     
  0.15771898000000001       0.42747892999999998        0.0000000000000000     
  0.34021692999999997       0.34221559000000001        0.0000000000000000     
  0.56002271999999997       0.57501117999999996        0.0000000000000000     
  0.65344329000000001       0.78147597999999996        0.0000000000000000     
   0.0000000000000000        0.0000000000000000        0.0000000000000000     
   1.0000000000000000        0.0000000000000000        0.0000000000000000     
   1.0000000000000000        1.0000000000000000        0.0000000000000000     
   0.0000000000000000        1.0000000000000000        0.0000000000000000     
  0.11111111000000000        0.0000000000000000        0.0000000000000000     
  0.22222222000000000        0.0000000000000000        0.0000000000000000     
  0.33333332999999998        0.0000000000000000        0.0000000000000000     
  0.44444444000000000        0.0000000000000000        0.0000000000000000     
  0.55555555999999995        0.0000000000000000        0.0000000000000000     
  0.66666667000000002        0.0000000000000000        0.0000000000000000     
  0.77777777999999997        0.0000000000000000        0.0000000000000000     
  0.88888889000000004        0.0000000000000000        0.0000000000000000     
   1.0000000000000000       0.11111111000000000        0.0000000000000000     
   1.0000000000000000       0.22222222000000000        0.0000000000000000     
   1.0000000000000000       0.33333332999999998        0.0000000000000000     
   1.0000000000000000       0.44444444000000000        0.0000000000000000     
   1.0000000000000000       0.55555555999999995        0.0000000000000000     
   1.0000000000000000       0.66666667000000002        0.0000000000000000     
   1.0000000000000000       0.77777777999999997        0.0000000000000000     
   1.0000000000000000       0.88888889000000004        0.0000000000000000     
  0.88888889000000004        1.0000000000000000        0.0000000000000000     
  0.77777777999999997        1.0000000000000000        0.0000000000000000     
  0.66666667000000002        1.0000000000000000        0.0000000000000000     
  0.55555555999999995        1.0000000000000000        0.0000000000000000     
  0.44444444000000000        1.0000000000000000        0.0000000000000000     
  0.33333332999999998        1.0000000000000000        0.0000000000000000     
  0.22222222000000000        1.0000000000000000        0.0000000000000000     
  0.11111111000000000        1.0000000000000000        0.0000000000000000     
   0.0000000000000000       0.11111111000000000        0.0000000000000000     
   0.0000000000000000       0.22222222000000000        0.0000000000000000     
[...]
 CELL_DATA         354
 SCALARS V float
 LOOKUP_TABLE default
    0.22316841946905178855E-02
    0.70236463328738531903E-02
    0.16898690807954520193E-02
    0.17187986245751421532E-02
    0.25757549058714975833E-02
    0.30468495935910195650E-02
    0.11264363615677366187E-01
    0.66979825842078200351E-02
    0.12862303194555203822E-01
    0.13851600811235088156E-01
    0.16085888938397189390E-01
    0.15137252354539203897E-01
    0.16356013838631510565E-01
    0.16533891654016318745E-01
    0.16225116139577520913E-01
    0.16526123401363126963E-01
    0.15709009829741292508E-01
    0.14444666808574944949E-01
    0.10363925051686423764E-01
    0.13232984514545274163E-01
    0.89491412976593163325E-02
    0.10798035486790816956E-01
    0.12622814223845741852E-01
    0.11523742397889735062E-01
    0.12754217985568992721E-01
    0.12393417665489413898E-01
    0.92905665243277375798E-02
    0.11572013078112720202E-01
    0.68736787501881514359E-02
    0.48653737626504021258E-02
    0.24640418456185276055E-02
    0.28060721456669244361E-02
    0.22661084924508697637E-02
    0.20090876743083453844E-02
    0.17526046489803460797E-02
    0.18720970466572306803E-02
    0.17169924510126183953E-02
    0.17219949152945577230E-02
    0.18323113005687164962E-02
    0.17513794670363635325E-02
    0.18404830747575156788E-02
    0.18567649612753643271E-02
    0.18898836025987701161E-02
    0.18654212042151369078E-02
    0.18834586931507396775E-02
    0.17678669272872015502E-02
    0.16997783852453916733E-02
    0.17213495911793544411E-02
    0.16803203601334301426E-02
    0.16498410208274701550E-02
    0.16503713525897534872E-02
    0.16163544805206354026E-02
    0.23115265172487168936E-02
    0.23328218435449440786E-02
    0.25213900253430311486E-02
    0.23776360891011056459E-02
    0.25102127682545818596E-02
    0.24447000270318422141E-02
    0.23536220793852011962E-02
    0.24102244272561413642E-02
    0.22693219659694345743E-02
    0.20836853158101081504E-02
    0.18262857210350064152E-02
    0.19733515074505563261E-02
    0.17590577182323970194E-02
    0.16589211582332553246E-02
    0.15649407477190636559E-02
    0.15962861283722365978E-02
    0.16137948291541831525E-01
    0.15218750140824377839E-01
    0.14721463629532176992E-01
    0.15601758608393089672E-01
    0.15061613023757070701E-01
    0.15234946443864198079E-01
    0.13743760732137280320E-01
    0.12482656167116943507E-01
    0.12868242062976632811E-01
    0.14399460966407645959E-01
    0.97130668242733225748E-02
    0.11407703487945744514E-01
    0.42400451397693579916E-02
    0.78408859833726911315E-02
    0.11823645522165228405E-01
    0.56165768752028423505E-02
    0.15643676292196623256E-01
    0.16130675344783178271E-01
    0.14126625194761965529E-01
    0.16168762277729904764E-01
    0.15891098161537799832E-01
    0.16789610895170316296E-01
    0.15601817308385794794E-01
    0.60139559960354143850E-02
    0.55070762350918666186E-02
    0.29912668433769709284E-02
    0.28240908402462155079E-02
    0.31886454730199707830E-02
    0.79995659817272603970E-02
    0.12158294249177501595E-01
    0.15048770056197202649E-01
    0.13190021012944735251E-01
    0.14560207424273462207E-01
    0.12228145000695139419E-01
    0.13655899181349538674E-01
    0.16866483807029139519E-01
    0.16791527784850102112E-01
    0.17178136983716181529E-01
    0.17311005079106642213E-01
    0.16636100892844452037E-01
    0.98804941836005584499E-02
    0.75751420284622342921E-02
    0.29209959841497473883E-02
    0.71635748070922877773E-02
    0.37005141367267876777E-02
    0.34806955330644344035E-02
    0.12674811524358488291E-01
    0.51158668994695753740E-02
    0.96119629735886939759E-02
    0.12528234218639671543E-01
    0.12190055864278483838E-01
    0.53676305627310249430E-02
    0.97170128187759087501E-02
    0.22216965910183544830E-02
    0.25391368990892986685E-02
    0.20498073132915457621E-02
    0.26994394990199452496E-02
    0.29219546298400499509E-02
    0.20407629342945607723E-02
    0.21839753084316286535E-02
    0.61726731365305490679E-02
    0.11098620658929431865E-01
    0.37799128255872537982E-02
    0.11784580767853823288E-01
    0.10233736258731945812E-01
    0.32364512293012164673E-02
    0.75145556321595790433E-02
    0.13613051924166206380E-01
    0.15136078359664729281E-01
    0.13212227628901607873E-01
    0.14699607149284768526E-01
    0.15408703087404489185E-01
    0.14066499571435492344E-01
    0.12925456635024165294E-01
    0.19095116867586625457E-02
    0.18338598886223835428E-02
    0.16782820497026071718E-02
    0.21777054217047798687E-02
    0.21043622907411995912E-02
    0.17016071169945873581E-02
    0.17298203794591439798E-02
    0.15182145195371546387E-01
    0.16040912151055984614E-01
    0.16747369986016384658E-01
    0.15480710003880468820E-01
    0.17248903634350519487E-01
    0.15518365759357758207E-01
    0.13125927336227095552E-01
    0.14632009632959078888E-01
    0.15359321551189950017E-01
    0.12982414021592872735E-01
    0.14420493078513778318E-01
    0.11547461242511110335E-01
    0.14055084649319076612E-01
    0.13307340194866949801E-01
    0.12444781075419641264E-01
    0.12434976564082725337E-01
    0.24457989110881111008E-02
    0.29085005344648847368E-02
    0.24587598759211121494E-02
    0.28013571616782948631E-02
    0.30521709936940440329E-02
    0.13085861202306540291E-01
    0.15399033480688134601E-01
    0.13955337619652095210E-01
    0.14154394943245890079E-01
    0.15277390367948021077E-01
    0.65203927389437654066E-02
    0.10553461075216949080E-01
    0.11756829451801315001E-01
    0.48902619119172178672E-02
    0.89227381422477148459E-02
    0.15102029693001287752E-01
    0.13512186563852213866E-01
    0.14632665421801065858E-01
    0.13091385565164726304E-01
    0.14073997824331628548E-01
    0.39222072753050465921E-02
    0.11359220553794227224E-01
    0.74476771399313189057E-02
    0.69221685895268624672E-02
    0.10802483467599571787E-01
    0.16624054856579025680E-01
    0.16324986652469654358E-01
    0.16418981789147364669E-01
    0.16570585411574145079E-01
    0.17456349886632447493E-01
    0.23911446579732119344E-02
    0.32267644495171769747E-02
    0.26307176687682693600E-02
    0.25938620879422968381E-02
    0.30042483274969997327E-02
    0.21873579653473246634E-02
    0.20704075992733711811E-02
    0.22988316418447903022E-02
    0.20318309629931150320E-02
    0.24522136452660111584E-02
    0.15516937311077430919E-01
    0.16375620760904572443E-01
    0.16400992454167543505E-01
    0.16079102710715040270E-01
    0.16536587596000414113E-01
    0.11221774241202315398E-01
    0.10893007110335155632E-01
    0.12491986682094797373E-01
    0.11966838769546132154E-01
    0.12860082589756547528E-01
    0.14572738990747445900E-01
    0.12888688604981945324E-01
    0.13083840365706799272E-01
    0.14330629842971384647E-01
    0.14783987511317538827E-01
    0.13052680796955519471E-01
    0.12592299271274996764E-01
    0.12328349597128052464E-01
    0.40775784717268555996E-02
    0.10699144466734748782E-01
    0.20048655969976988782E-02
    0.21601370212308759061E-02
    0.25968710470239781893E-02
    0.25947548581024531406E-02
    0.25682908298422998938E-02
    0.28930801965754704419E-02
    0.32099656139743296644E-02
    0.47973464970192808421E-02
    0.86893361228816100306E-02
    0.11354932662225317858E-01
    0.11061305735055666083E-01
    0.12000510679509083373E-01
    0.16483827562790241000E-01
    0.15941448014052599785E-01
    0.17477715020061054818E-01
    0.16089698146044929122E-01
    0.11768179113921719420E-01
    0.38660846616809744353E-02
    0.55205164439194459591E-02
    0.15329777816308471500E-01
    0.14962705285772006508E-01
    0.25554713627676814772E-02
    0.21220142851359818578E-02
    0.19570901884568871198E-02
    0.86981338526056547339E-02
    0.32676689989426734202E-02
    0.29237387092442695957E-02
    0.12214200917668182472E-01
    0.13290482936266868885E-01
    0.10017205826332961638E-01
    0.14115793011635926341E-01
    0.12821647418854918016E-01
    0.12793972693693353437E-01
    0.33883879023537295805E-02
    0.33497681000428454652E-02
    0.23182472675303371357E-02
    0.15818452235524502886E-01
    0.16421128645145700864E-01
    0.15148811244408196680E-01
    0.22577532471144117626E-02
    0.21734227817544753310E-02
    0.17812913374279678962E-02
    0.20945833352394543740E-02
    0.18746159898083705145E-02
    0.16949617950182971089E-02
    0.15142894988883649071E-01
    0.17126272812963146130E-01
    0.15921474354802130080E-01
    0.15537777864428801988E-01
    0.10496764458235087469E-01
    0.13920260838254313457E-01
    0.12004900798414862642E-01
    0.12100073140654156109E-01
    0.31713706385851168218E-02
    0.11590885823955414738E-01
    0.10009432119952730439E-01
    0.50721900390111422652E-02
    0.16122164024796548087E-01
    0.16499537440141966160E-01
    0.15991315497483879482E-01
    0.14497026741866515798E-01
    0.14001858824025676525E-01
    0.27360453139199754011E-02
    0.36198447971414089708E-02
    0.18481771425792568875E-02
    0.19539533406808949796E-02
    0.13025547031572276210E-01
    0.12106214562009373625E-01
    0.15674380056182215908E-02
    0.15880508270661379371E-02
    0.11911375896695500926E-01
    0.37778203875344249993E-02
    0.34650097604936739085E-02
    0.15568020575260988272E-01
    0.24735833299045447732E-02
    0.12014939802080969872E-01
    0.17539441801080357664E-01
    0.25987995084459690823E-02
    0.15470425155268814621E-01
    0.12781568473120577534E-01
    0.13882164461587544885E-01
    0.11854437043576471211E-01
    0.13566007126926567933E-01
    0.25157308718787929971E-02
    0.27978128909200319745E-02
    0.99556285701540066929E-02
    0.12399692060779711478E-01
    0.15447298637806295557E-01
    0.45640222534964729889E-02
    0.15449744306599618587E-01
    0.13014283437431734686E-01
    0.14421114170138291111E-01
    0.32574433191480314104E-02
    0.22093156585001232431E-02
    0.19719532401598605618E-02
    0.53924417104906693238E-02
    0.45307040252015959997E-02
    0.16615018055838146234E-02
    0.16314627584902261122E-02
    0.17673833056252861214E-02
    0.16718911429623515945E-02
    0.29678139154768706613E-02
    0.78221046803767166344E-02
    0.86207398144642170823E-02
    0.96047189689702078264E-02
    0.98885820907356983961E-02
    0.94831795150622042595E-02
    0.85016788286965197519E-02
    0.68772730962696621004E-02
    0.80390821708127974121E-02
    0.76429609417031033752E-02
    0.51634814679417809571E-02
    0.25562692301142712903E-02
    0.21452613863807219914E-02
    0.18560346424330755998E-02
    0.16457221818304726239E-02
    0.16753942569871025769E-02
    0.16936335814519494665E-02
    0.16925659226775849851E-02
    0.16527497726707587704E-02
    0.16230936619080658326E-02
    0.16655877920157564215E-02
    0.20911790473638332093E-02
    0.21453757083587554795E-02
    0.21047455954542990293E-02
    0.20047174810216674204E-02
    0.18391874436122002991E-02
    0.16888000616970715636E-02
    0.16305397067061717410E-02
