# vtk DataFile Version 3.0
LAPLACIEN  2D
ASCII
DATASET UNSTRUCTURED_GRID
 POINTS         391  float
  0.50371505999999999       0.50367786999999997        0.0000000000000000     
  0.29013556000000001       0.29014535000000002        0.0000000000000000     
  0.70165584999999997       0.71206597999999999        0.0000000000000000     
  0.70304188999999995       0.30176619999999998        0.0000000000000000     
  0.30920671999999999       0.71149227999999998        0.0000000000000000     
  0.79044983999999996       0.49884783999999999        0.0000000000000000     
  0.49102621000000002       0.20968644000000000        0.0000000000000000     
  0.49912957000000002       0.77208717000000004        0.0000000000000000     
  0.21724072999999999       0.48989389000000000        0.0000000000000000     
  0.83255933999999998       0.83046598000000005        0.0000000000000000     
  0.16646774000000000       0.17015694000000001        0.0000000000000000     
  0.83054514999999995       0.16736480000000001        0.0000000000000000     
  0.16953130999999999       0.83265739000000005        0.0000000000000000     
  0.42166445000000002       0.36345201999999999        0.0000000000000000     
  0.64462200999999997       0.56347807999999999        0.0000000000000000     
  0.35324633999999999       0.56311191000000005        0.0000000000000000     
  0.65456411000000003       0.84856860999999995        0.0000000000000000     
  0.35141477999999998       0.15563974000000000        0.0000000000000000     
  0.15290967000000000       0.35206625000000003        0.0000000000000000     
  0.82942241000000005       0.34936866000000000        0.0000000000000000     
  0.84390527000000004       0.64441694999999999        0.0000000000000000     
  0.63699174999999997       0.14284276000000001        0.0000000000000000     
  0.15620682999999999       0.64648446999999998        0.0000000000000000     
  0.36426062999999997       0.85756310999999996        0.0000000000000000     
  0.63489340999999999       0.40519052000000000        0.0000000000000000     
  0.52518872999999999       0.65957078000000002        0.0000000000000000     
  0.32158959999999998       0.42298103999999997        0.0000000000000000     
  0.58861710000000000       0.31711036999999997        0.0000000000000000     
  0.42078418000000001       0.69497151999999995        0.0000000000000000     
  0.48608786999999998       0.89334152000000000        0.0000000000000000     
   9.7084320000000002E-002  0.50000000000000000        0.0000000000000000     
  0.90291568000000000       0.50000000000000000        0.0000000000000000     
  0.51392453000000005       0.10668648999999999        0.0000000000000000     
  0.59792566999999996       0.73122754000000001        0.0000000000000000     
  0.74510058999999995       0.41124730999999998        0.0000000000000000     
  0.73212551999999997       0.90191560000000004        0.0000000000000000     
   9.7784830000000003E-002  0.26957329000000002        0.0000000000000000     
  0.26711221000000002        9.8671499999999995E-002   0.0000000000000000     
  0.90191560000000004       0.26787448000000003        0.0000000000000000     
  0.90118569000000004       0.73039821000000005        0.0000000000000000     
  0.73122947000000005        9.8017859999999998E-002   0.0000000000000000     
   9.8084400000000002E-002  0.73212551999999997        0.0000000000000000     
  0.26957329000000002       0.90221516999999996        0.0000000000000000     
  0.39283522999999998       0.25360379000000000        0.0000000000000000     
  0.74480864000000002       0.60495284999999999        0.0000000000000000     
  0.25505132000000003       0.60593640999999998        0.0000000000000000     
  0.52159297999999998       0.40671636000000000        0.0000000000000000     
  0.40768852000000000       0.47699891000000000        0.0000000000000000     
   9.1467049999999994E-002   9.1876959999999994E-002   0.0000000000000000     
  0.90842484999999995       0.90819225000000003        0.0000000000000000     
  0.90820104999999995        9.1566729999999999E-002   0.0000000000000000     
   9.1807449999999999E-002  0.90843574000000005        0.0000000000000000     
  0.27098960000000000       0.20527094000000001        0.0000000000000000     
  0.73457293999999995       0.79835387000000002        0.0000000000000000     
  0.79817773000000003       0.25713470999999999        0.0000000000000000     
  0.20747797000000001       0.72863946000000002        0.0000000000000000     
  0.20175195000000001       0.27583914999999998        0.0000000000000000     
  0.79603889000000005       0.72159035000000005        0.0000000000000000     
  0.71761666000000002       0.19748431999999999        0.0000000000000000     
  0.28462607000000001       0.80251899999999998        0.0000000000000000     
  0.69134598999999997       0.49261972999999998        0.0000000000000000     
  0.44720578999999999       0.58582935999999997        0.0000000000000000     
  0.24242269999999999       0.37228174000000003        0.0000000000000000     
  0.38265623999999998       0.93072131999999996        0.0000000000000000     
  0.60971754000000000       0.91988369000000003        0.0000000000000000     
   7.9163609999999995E-002  0.60979116000000000        0.0000000000000000     
  0.92010649000000000       0.61081183999999999        0.0000000000000000     
  0.61954008999999999        7.1530830000000004E-002   0.0000000000000000     
  0.91882012999999996       0.38917363999999999        0.0000000000000000     
  0.39086346000000000        8.0652249999999995E-002   0.0000000000000000     
   7.9183480000000001E-002  0.38966213000000000        0.0000000000000000     
  0.59114111999999996       0.49294315000000000        0.0000000000000000     
  0.63337980999999999       0.64485914000000000        0.0000000000000000     
  0.50012352000000004       0.29676539000000002        0.0000000000000000     
  0.82552601000000003       0.92753492000000004        0.0000000000000000     
  0.92774772999999999       0.82498556999999995        0.0000000000000000     
   7.1970870000000006E-002  0.17510291000000000        0.0000000000000000     
  0.17422821999999999        7.2635640000000001E-002   0.0000000000000000     
  0.82510813000000005        7.2134840000000006E-002   0.0000000000000000     
  0.92754665000000003       0.17446275999999999        0.0000000000000000     
  0.17501022999999999       0.92789951999999998        0.0000000000000000     
   7.2464680000000004E-002  0.82554053000000005        0.0000000000000000     
  0.30731587999999999       0.50885354999999999        0.0000000000000000     
  0.59033407999999998       0.22171178999999999        0.0000000000000000     
  0.40109191999999999       0.78725542000000004        0.0000000000000000     
  0.35420917000000002       0.63754104000000000        0.0000000000000000     
  0.15983976999999999       0.56665573000000002        0.0000000000000000     
  0.84108459999999996       0.56757886999999996        0.0000000000000000     
  0.83902096000000004       0.43344338999999998        0.0000000000000000     
  0.43230028999999998       0.16004268999999999        0.0000000000000000     
  0.57536027999999995       0.83041363999999995        0.0000000000000000     
  0.15771898000000001       0.42747892999999998        0.0000000000000000     
  0.34021692999999997       0.34221559000000001        0.0000000000000000     
  0.56002271999999997       0.57501117999999996        0.0000000000000000     
  0.65344329000000001       0.78147597999999996        0.0000000000000000     
   0.0000000000000000        0.0000000000000000        0.0000000000000000     
   1.0000000000000000        0.0000000000000000        0.0000000000000000     
   1.0000000000000000        1.0000000000000000        0.0000000000000000     
   0.0000000000000000        1.0000000000000000        0.0000000000000000     
  0.11111111000000000        0.0000000000000000        0.0000000000000000     
  0.22222222000000000        0.0000000000000000        0.0000000000000000     
  0.33333332999999998        0.0000000000000000        0.0000000000000000     
  0.44444444000000000        0.0000000000000000        0.0000000000000000     
  0.55555555999999995        0.0000000000000000        0.0000000000000000     
  0.66666667000000002        0.0000000000000000        0.0000000000000000     
  0.77777777999999997        0.0000000000000000        0.0000000000000000     
  0.88888889000000004        0.0000000000000000        0.0000000000000000     
   1.0000000000000000       0.11111111000000000        0.0000000000000000     
   1.0000000000000000       0.22222222000000000        0.0000000000000000     
   1.0000000000000000       0.33333332999999998        0.0000000000000000     
   1.0000000000000000       0.44444444000000000        0.0000000000000000     
   1.0000000000000000       0.55555555999999995        0.0000000000000000     
   1.0000000000000000       0.66666667000000002        0.0000000000000000     
   1.0000000000000000       0.77777777999999997        0.0000000000000000     
   1.0000000000000000       0.88888889000000004        0.0000000000000000     
  0.88888889000000004        1.0000000000000000        0.0000000000000000     
  0.77777777999999997        1.0000000000000000        0.0000000000000000     
  0.66666667000000002        1.0000000000000000        0.0000000000000000     
  0.55555555999999995        1.0000000000000000        0.0000000000000000     
  0.44444444000000000        1.0000000000000000        0.0000000000000000     
  0.33333332999999998        1.0000000000000000        0.0000000000000000     
  0.22222222000000000        1.0000000000000000        0.0000000000000000     
  0.11111111000000000        1.0000000000000000        0.0000000000000000     
   0.0000000000000000       0.11111111000000000        0.0000000000000000     
   0.0000000000000000       0.22222222000000000        0.0000000000000000     
[...]
 CELL_DATA         354
 SCALARS V float
 LOOKUP_TABLE default
    0.30853361961751615133E-01
    0.40784436042354960117E-01
    0.22327964173324416075E-01
    0.18623803477396085743E-01
    0.33611245083583443649E-01
    0.36269107948375983730E-01
    0.43316525379311479615E-01
    0.39492114539220239677E-01
    0.46982475939881793159E-01
    0.50857184561432886016E-01
    0.58527824478608880820E-01
    0.54340643754223330597E-01
    0.60168522667941620741E-01
    0.59183760921672476374E-01
    0.56939303354324788398E-01
    0.58295744551526966493E-01
    0.54236273537642723519E-01
    0.50200898904692765889E-01
    0.43971498412842709158E-01
    0.46852787381893225283E-01
    0.42663983401420663144E-01
    0.43882453742821632414E-01
    0.47126862481682962880E-01
    0.45333299047185991737E-01
    0.47493732891560482001E-01
    0.46474848777933203126E-01
    0.43926598487609019861E-01
    0.45356551023955943291E-01
    0.41822716390138112152E-01
    0.38796247888119014813E-01
    0.33565902242606984740E-01
    0.36224668709874383032E-01
    0.30996913130819418736E-01
    0.28283868162136266422E-01
    0.24230131314090054551E-01
    0.26042912234408598093E-01
    0.23246647233775487307E-01
    0.23875037505663540549E-01
    0.25944862096402600271E-01
    0.24752717688273168095E-01
    0.26559550355508464159E-01
    0.26678663636442508100E-01
    0.27202772542276112966E-01
    0.26855025542626271423E-01
    0.26795768947451420461E-01
    0.25511351698308579183E-01
    0.24147753694253978191E-01
    0.24720379414027476156E-01
    0.23137046534083154092E-01
    0.21676114931622764842E-01
    0.19678731267369391905E-01
    0.20545355296215712937E-01
    0.31870486018173507792E-01
    0.32403698433136084167E-01
    0.34302192805214119786E-01
    0.33192900164332919677E-01
    0.34495335349889036380E-01
    0.33809570523640010420E-01
    0.32619433725357041554E-01
    0.33222342804334704935E-01
    0.31451105952290329959E-01
    0.29593869831074183507E-01
    0.26408329219094705403E-01
    0.28031209586899343000E-01
    0.24718499223132302245E-01
    0.22793053071051623537E-01
    0.19991678482358981456E-01
    0.21233133903202274645E-01
    0.70507363998868283206E-01
    0.63446226732201044252E-01
    0.59157228323997133879E-01
    0.66782803868310494644E-01
    0.61186170565884157035E-01
    0.61161141416492606493E-01
    0.54716606892660897554E-01
    0.51449936390683383147E-01
    0.53273673720644801333E-01
    0.58823819856656280047E-01
    0.42558338826606048610E-01
    0.45879218288818517102E-01
    0.38695167888253834132E-01
    0.40885144389689959121E-01
    0.46120696236626089470E-01
    0.39850174597029719425E-01
    0.68634857646583530277E-01
    0.79855343150675606179E-01
    0.87681306385835711126E-01
    0.72591564685554749170E-01
    0.70346606284973703382E-01
    0.75330581324814016586E-01
    0.83578650961562334087E-01
    0.40015749068288510026E-01
    0.39019802262162936457E-01
    0.34945308051067727750E-01
    0.34191841066367738289E-01
    0.36502712814452782653E-01
    0.41060005422393651420E-01
    0.51458180269848385890E-01
    0.61398586598816771998E-01
    0.53533839354218584750E-01
    0.59898082048105580344E-01
    0.51207383818285684418E-01
    0.56118846136838380911E-01
    0.72960091157205503309E-01
    0.73610097033623006491E-01
    0.81469040425572319952E-01
    0.81417930731353532758E-01
    0.71550978805106801861E-01
    0.43184460161041923754E-01
    0.40757205919445843589E-01
    0.34326786515720998649E-01
    0.40472744671820291840E-01
    0.36807642910375790168E-01
    0.36418649197711663867E-01
    0.50219392608310875481E-01
    0.39506786154046028003E-01
    0.42760542142981659841E-01
    0.47432292232335096505E-01
    0.47437831611915483310E-01
    0.40126477925168928251E-01
    0.42724850724900148569E-01
    0.30021309740669712557E-01
    0.32703584567955107376E-01
    0.27827472633133544522E-01
    0.33172971208094335915E-01
    0.34789136862010974771E-01
    0.28187812586910002827E-01
    0.29629499431614449156E-01
    0.40238071074615452960E-01
    0.45012568704044728096E-01
    0.38115665917232213755E-01
    0.47236108609804663971E-01
    0.44599720940853945783E-01
    0.38204626485262467572E-01
    0.40814362204227114250E-01
    0.54908211807904963586E-01
    0.59128404036368889529E-01
    0.51015447962765636536E-01
    0.60725986427137626511E-01
    0.63678654650475272070E-01
    0.53926469828915121751E-01
    0.51784755343296559604E-01
    0.26891150687874038061E-01
    0.26080549180982584567E-01
    0.23386430101425076389E-01
    0.29111555686579554392E-01
    0.28662683521356636246E-01
    0.24101543902027029037E-01
    0.24552939863129598363E-01
    0.63365533043177255101E-01
    0.70486940859597752018E-01
    0.74955466070650525467E-01
    0.66445017032157591141E-01
    0.77825538391123105786E-01
    0.65754013919943565813E-01
    0.54582285397357495349E-01
    0.60825861959770709253E-01
    0.62783283885285451342E-01
    0.54009661239606696070E-01
    0.58086320819000801519E-01
    0.45736421307841987338E-01
    0.54870385383640897514E-01
    0.51826222638153909839E-01
    0.50213093887310392138E-01
    0.47166370622546680003E-01
    0.31158881982151186152E-01
    0.34004075832137034552E-01
    0.31111312755193572949E-01
    0.33750544335643846428E-01
    0.35343143099603860358E-01
    0.53141875539204630474E-01
    0.62603812325776123093E-01
    0.55730938694598761152E-01
    0.57159509613486148005E-01
    0.62462898812853176467E-01
    0.40416249024784883792E-01
    0.44519782637276669734E-01
    0.45877017721333540612E-01
    0.39329417104009681272E-01
    0.42038535918427696880E-01
    0.64333246989411757566E-01
    0.56458752791803908100E-01
    0.62686451373454979419E-01
    0.54822980197818192705E-01
    0.58123600105343717348E-01
    0.38268045682202482538E-01
    0.45494254828136418412E-01
    0.40627888166860533226E-01
    0.40860555932996527051E-01
    0.44724990662101705985E-01
    0.70280181945114580944E-01
    0.66345728819571098134E-01
    0.71859755297082009151E-01
    0.66946669242280029688E-01
    0.77232775941732612068E-01
    0.30595173731251125437E-01
    0.36733907593871094333E-01
    0.32988219729340538533E-01
    0.32128770621757424264E-01
    0.35311054613617970377E-01
    0.30352933474790559643E-01
    0.28171829561770292405E-01
    0.30697515241128233571E-01
    0.28400751110811660316E-01
    0.32494767565748441940E-01
    0.86758147269048790928E-01
    0.73172771522377347275E-01
    0.79859901900632912497E-01
    0.70993424350902056830E-01
    0.73442834861480996156E-01
    0.45560937930299680310E-01
    0.45081576938342887706E-01
    0.50751119442848137420E-01
    0.49253586187244527417E-01
    0.52818932318084807487E-01
    0.59133464953615794135E-01
    0.53198525089709666758E-01
    0.53236384068206257791E-01
    0.59201729228897173596E-01
    0.87323522782497775552E-01
    0.91127195073547218040E-01
    0.91510363203706882040E-01
    0.47684853254892335672E-01
    0.38873476277555503444E-01
    0.43815592097074494704E-01
    0.28178283937103108803E-01
    0.29528460008839380047E-01
    0.33016332848328590333E-01
    0.32552830608784312505E-01
    0.32898360839799654920E-01
    0.35702735691549719599E-01
    0.36270844727064092961E-01
    0.38570957627848498350E-01
    0.43137905770641693515E-01
    0.48318889199902383125E-01
    0.47226349926495797549E-01
    0.51605135928786252664E-01
    0.64759307070592131428E-01
    0.61009093329658620197E-01
    0.76019421774827594662E-01
    0.66768514608617601791E-01
    0.45915463691517360845E-01
    0.38337283811014873092E-01
    0.39740817542059291012E-01
    0.66088534147691613274E-01
    0.60986176901238059456E-01
    0.32038156613578797072E-01
    0.28890161549684489906E-01
    0.27382481151815078052E-01
    0.42420083526191948442E-01
    0.37086639985092331728E-01
    0.36590580726446678139E-01
    0.50029031954142919036E-01
    0.51894166142175013334E-01
    0.43026543295062100181E-01
    0.58373868112381890882E-01
    0.51198984839913981582E-01
    0.50063200036961588713E-01
    0.36454951671780269629E-01
    0.37053530747496093989E-01
    0.30961143279988480315E-01
    0.65583591285686873573E-01
    0.62005277015671982077E-01
    0.55363238617610409376E-01
    0.29751180034844670885E-01
    0.29156218238283657801E-01
    0.25102467363898622876E-01
    0.28420436259025461112E-01
    0.26282843420088217862E-01
    0.23994015268485893722E-01
    0.59634366641573913204E-01
    0.76496994399789186581E-01
    0.67654393149795988283E-01
    0.64754587358276230469E-01
    0.43961609552339644957E-01
    0.57044822565116476420E-01
    0.50043495265769066815E-01
    0.48805475928067151847E-01
    0.36315482948449655243E-01
    0.45856122487918052344E-01
    0.42862910947882026935E-01
    0.38957969083106003261E-01
    0.69539924057986826633E-01
    0.73368060146277377931E-01
    0.83039888268554407080E-01
    0.57268074787072957565E-01
    0.55260168925077353397E-01
    0.34982228709566479119E-01
    0.37076642707810275601E-01
    0.25636399566809558309E-01
    0.26799828941032510093E-01
    0.48734853332752653410E-01
    0.47076307502755466994E-01
    0.21797895687142434390E-01
    0.22165654466862222405E-01
    0.49552031374228401595E-01
    0.36925721260194881157E-01
    0.36693946441909389145E-01
    0.67701093909632498180E-01
    0.31647177481753913098E-01
    0.48663883444559186131E-01
    0.78427652383198653840E-01
    0.33404611805497641530E-01
    0.66596279326635157703E-01
    0.48394198360857051955E-01
    0.55724168089737582954E-01
    0.45337616020014112617E-01
    0.55867196484158880565E-01
    0.31729127372561748144E-01
    0.33945377762838138680E-01
    0.43712843845276377897E-01
    0.52899775523452707837E-01
    0.61583583284323735463E-01
    0.38770768395289381680E-01
    0.62636800673181447507E-01
    0.53674824771943269175E-01
    0.87600098685421665112E-01
    0.36423282053223031418E-01
    0.30331404635810282205E-01
    0.28814716743856268882E-01
    0.39504461964264263318E-01
    0.38383269139761713729E-01
    0.21815373707119944946E-01
    0.20954186668835198676E-01
    0.17673769476734262074E-01
    0.17948464208470786552E-01
    0.36352214429850787658E-01
    0.43088275820833320251E-01
    0.49508361315060728236E-01
    0.54382789120770672064E-01
    0.54958335336415004013E-01
    0.51969999630536493906E-01
    0.45993105521005876735E-01
    0.41753100407417663431E-01
    0.43613985862911271163E-01
    0.42745904321828266659E-01
    0.39907273912019702866E-01
    0.35497651521329477708E-01
    0.30725273727534412049E-01
    0.25986584137927131594E-01
    0.22787737703899149655E-01
    0.24284628022067503150E-01
    0.24885813450537062202E-01
    0.24801301487679013047E-01
    0.23628572752524414774E-01
    0.22048060910885330238E-01
    0.19879989435897055250E-01
    0.30686669366220845068E-01
    0.31727042345541980883E-01
    0.31228528691242665727E-01
    0.29696381926117485645E-01
    0.27089117373439712544E-01
    0.24101010225302470225E-01
    0.20899577496853071618E-01
