# vtk DataFile Version 3.0
LAPLACIEN  2D
ASCII
DATASET UNSTRUCTURED_GRID
 POINTS         391  float
  0.50371505999999999       0.50367786999999997        0.0000000000000000     
  0.29013556000000001       0.29014535000000002        0.0000000000000000     
  0.70165584999999997       0.71206597999999999        0.0000000000000000     
  0.70304188999999995       0.30176619999999998        0.0000000000000000     
  0.30920671999999999       0.71149227999999998        0.0000000000000000     
  0.79044983999999996       0.49884783999999999        0.0000000000000000     
  0.49102621000000002       0.20968644000000000        0.0000000000000000     
  0.49912957000000002       0.77208717000000004        0.0000000000000000     
  0.21724072999999999       0.48989389000000000        0.0000000000000000     
  0.83255933999999998       0.83046598000000005        0.0000000000000000     
  0.16646774000000000       0.17015694000000001        0.0000000000000000     
  0.83054514999999995       0.16736480000000001        0.0000000000000000     
  0.16953130999999999       0.83265739000000005        0.0000000000000000     
  0.42166445000000002       0.36345201999999999        0.0000000000000000     
  0.64462200999999997       0.56347807999999999        0.0000000000000000     
  0.35324633999999999       0.56311191000000005        0.0000000000000000     
  0.65456411000000003       0.84856860999999995        0.0000000000000000     
  0.35141477999999998       0.15563974000000000        0.0000000000000000     
  0.15290967000000000       0.35206625000000003        0.0000000000000000     
  0.82942241000000005       0.34936866000000000        0.0000000000000000     
  0.84390527000000004       0.64441694999999999        0.0000000000000000     
  0.63699174999999997       0.14284276000000001        0.0000000000000000     
  0.15620682999999999       0.64648446999999998        0.0000000000000000     
  0.36426062999999997       0.85756310999999996        0.0000000000000000     
  0.63489340999999999       0.40519052000000000        0.0000000000000000     
  0.52518872999999999       0.65957078000000002        0.0000000000000000     
  0.32158959999999998       0.42298103999999997        0.0000000000000000     
  0.58861710000000000       0.31711036999999997        0.0000000000000000     
  0.42078418000000001       0.69497151999999995        0.0000000000000000     
  0.48608786999999998       0.89334152000000000        0.0000000000000000     
   9.7084320000000002E-002  0.50000000000000000        0.0000000000000000     
  0.90291568000000000       0.50000000000000000        0.0000000000000000     
  0.51392453000000005       0.10668648999999999        0.0000000000000000     
  0.59792566999999996       0.73122754000000001        0.0000000000000000     
  0.74510058999999995       0.41124730999999998        0.0000000000000000     
  0.73212551999999997       0.90191560000000004        0.0000000000000000     
   9.7784830000000003E-002  0.26957329000000002        0.0000000000000000     
  0.26711221000000002        9.8671499999999995E-002   0.0000000000000000     
  0.90191560000000004       0.26787448000000003        0.0000000000000000     
  0.90118569000000004       0.73039821000000005        0.0000000000000000     
  0.73122947000000005        9.8017859999999998E-002   0.0000000000000000     
   9.8084400000000002E-002  0.73212551999999997        0.0000000000000000     
  0.26957329000000002       0.90221516999999996        0.0000000000000000     
  0.39283522999999998       0.25360379000000000        0.0000000000000000     
  0.74480864000000002       0.60495284999999999        0.0000000000000000     
  0.25505132000000003       0.60593640999999998        0.0000000000000000     
  0.52159297999999998       0.40671636000000000        0.0000000000000000     
  0.40768852000000000       0.47699891000000000        0.0000000000000000     
   9.1467049999999994E-002   9.1876959999999994E-002   0.0000000000000000     
  0.90842484999999995       0.90819225000000003        0.0000000000000000     
  0.90820104999999995        9.1566729999999999E-002   0.0000000000000000     
   9.1807449999999999E-002  0.90843574000000005        0.0000000000000000     
  0.27098960000000000       0.20527094000000001        0.0000000000000000     
  0.73457293999999995       0.79835387000000002        0.0000000000000000     
  0.79817773000000003       0.25713470999999999        0.0000000000000000     
  0.20747797000000001       0.72863946000000002        0.0000000000000000     
  0.20175195000000001       0.27583914999999998        0.0000000000000000     
  0.79603889000000005       0.72159035000000005        0.0000000000000000     
  0.71761666000000002       0.19748431999999999        0.0000000000000000     
  0.28462607000000001       0.80251899999999998        0.0000000000000000     
  0.69134598999999997       0.49261972999999998        0.0000000000000000     
  0.44720578999999999       0.58582935999999997        0.0000000000000000     
  0.24242269999999999       0.37228174000000003        0.0000000000000000     
  0.38265623999999998       0.93072131999999996        0.0000000000000000     
  0.60971754000000000       0.91988369000000003        0.0000000000000000     
   7.9163609999999995E-002  0.60979116000000000        0.0000000000000000     
  0.92010649000000000       0.61081183999999999        0.0000000000000000     
  0.61954008999999999        7.1530830000000004E-002   0.0000000000000000     
  0.91882012999999996       0.38917363999999999        0.0000000000000000     
  0.39086346000000000        8.0652249999999995E-002   0.0000000000000000     
   7.9183480000000001E-002  0.38966213000000000        0.0000000000000000     
  0.59114111999999996       0.49294315000000000        0.0000000000000000     
  0.63337980999999999       0.64485914000000000        0.0000000000000000     
  0.50012352000000004       0.29676539000000002        0.0000000000000000     
  0.82552601000000003       0.92753492000000004        0.0000000000000000     
  0.92774772999999999       0.82498556999999995        0.0000000000000000     
   7.1970870000000006E-002  0.17510291000000000        0.0000000000000000     
  0.17422821999999999        7.2635640000000001E-002   0.0000000000000000     
  0.82510813000000005        7.2134840000000006E-002   0.0000000000000000     
  0.92754665000000003       0.17446275999999999        0.0000000000000000     
  0.17501022999999999       0.92789951999999998        0.0000000000000000     
   7.2464680000000004E-002  0.82554053000000005        0.0000000000000000     
  0.30731587999999999       0.50885354999999999        0.0000000000000000     
  0.59033407999999998       0.22171178999999999        0.0000000000000000     
  0.40109191999999999       0.78725542000000004        0.0000000000000000     
  0.35420917000000002       0.63754104000000000        0.0000000000000000     
  0.15983976999999999       0.56665573000000002        0.0000000000000000     
  0.84108459999999996       0.56757886999999996        0.0000000000000000     
  0.83902096000000004       0.43344338999999998        0.0000000000000000     
  0.43230028999999998       0.16004268999999999        0.0000000000000000     
  0.57536027999999995       0.83041363999999995        0.0000000000000000     
  0.15771898000000001       0.42747892999999998        0.0000000000000000     
  0.34021692999999997       0.34221559000000001        0.0000000000000000     
  0.56002271999999997       0.57501117999999996        0.0000000000000000     
  0.65344329000000001       0.78147597999999996        0.0000000000000000     
   0.0000000000000000        0.0000000000000000        0.0000000000000000     
   1.0000000000000000        0.0000000000000000        0.0000000000000000     
   1.0000000000000000        1.0000000000000000        0.0000000000000000     
   0.0000000000000000        1.0000000000000000        0.0000000000000000     
  0.11111111000000000        0.0000000000000000        0.0000000000000000     
  0.22222222000000000        0.0000000000000000        0.0000000000000000     
  0.33333332999999998        0.0000000000000000        0.0000000000000000     
  0.44444444000000000        0.0000000000000000        0.0000000000000000     
  0.55555555999999995        0.0000000000000000        0.0000000000000000     
  0.66666667000000002        0.0000000000000000        0.0000000000000000     
  0.77777777999999997        0.0000000000000000        0.0000000000000000     
  0.88888889000000004        0.0000000000000000        0.0000000000000000     
   1.0000000000000000       0.11111111000000000        0.0000000000000000     
   1.0000000000000000       0.22222222000000000        0.0000000000000000     
   1.0000000000000000       0.33333332999999998        0.0000000000000000     
   1.0000000000000000       0.44444444000000000        0.0000000000000000     
   1.0000000000000000       0.55555555999999995        0.0000000000000000     
   1.0000000000000000       0.66666667000000002        0.0000000000000000     
   1.0000000000000000       0.77777777999999997        0.0000000000000000     
   1.0000000000000000       0.88888889000000004        0.0000000000000000     
  0.88888889000000004        1.0000000000000000        0.0000000000000000     
  0.77777777999999997        1.0000000000000000        0.0000000000000000     
  0.66666667000000002        1.0000000000000000        0.0000000000000000     
  0.55555555999999995        1.0000000000000000        0.0000000000000000     
  0.44444444000000000        1.0000000000000000        0.0000000000000000     
  0.33333332999999998        1.0000000000000000        0.0000000000000000     
  0.22222222000000000        1.0000000000000000        0.0000000000000000     
  0.11111111000000000        1.0000000000000000        0.0000000000000000     
   0.0000000000000000       0.11111111000000000        0.0000000000000000     
   0.0000000000000000       0.22222222000000000        0.0000000000000000     
[...]
 CELL_DATA         354
 SCALARS V float
 LOOKUP_TABLE default
    0.21926021485045212728E-02
    0.69189553242988924980E-02
    0.16614688045223776833E-02
    0.16910999431286289577E-02
    0.25306081145874143729E-02
    0.29966345581281268046E-02
    0.11064939204074690504E-01
    0.65825502043307991887E-02
    0.12637600086477650263E-01
    0.13613299394441429752E-01
    0.15809856000041866420E-01
    0.14876075865420647359E-01
    0.16079633303706358100E-01
    0.16253514627129407588E-01
    0.15947075899991336456E-01
    0.16243539121913907336E-01
    0.15437806245894716145E-01
    0.14194298846501132369E-01
    0.10182434877386018629E-01
    0.12993566038920186315E-01
    0.87985041073925639860E-02
    0.10614766645074607751E-01
    0.12406204170654869245E-01
    0.11331405115084753482E-01
    0.12534992378018916526E-01
    0.12180855379008533740E-01
    0.91291426515461033403E-02
    0.11367917891634054736E-01
    0.67633614986090332538E-02
    0.47844235050918011709E-02
    0.24213418357180702990E-02
    0.27584767370639564667E-02
    0.22264290759692528451E-02
    0.19740482676545911475E-02
    0.17226778082718252703E-02
    0.18397814030141187904E-02
    0.16878365364121610676E-02
    0.16926776020767314232E-02
    0.18007113579065836886E-02
    0.17213418779098293987E-02
    0.18088159629039697422E-02
    0.18247513327690533056E-02
    0.18572416877877034533E-02
    0.18331991874061827862E-02
    0.18508557053600275394E-02
    0.17374183288749679623E-02
    0.16708587934502439846E-02
    0.16919610635406695433E-02
    0.16518964860395169304E-02
    0.16221903580172607195E-02
    0.16233995254990108217E-02
    0.15897698630216784178E-02
    0.22708930394365381931E-02
    0.22917644983054498084E-02
    0.24771732421355564455E-02
    0.23358892072586363159E-02
    0.24668212359371813683E-02
    0.24023629914494909823E-02
    0.23124704619677896068E-02
    0.23680687278784598448E-02
    0.22296478879814170954E-02
    0.20473579257102541944E-02
    0.17948784441803161942E-02
    0.19391339680538627679E-02
    0.17289528819504364730E-02
    0.16308216328233618182E-02
    0.15394433604348147383E-02
    0.15697677701140429728E-02
    0.15876324771195812757E-01
    0.14960022814874709279E-01
    0.14464654085699796618E-01
    0.15344813011111652079E-01
    0.14798955373059653404E-01
    0.14971727582170631793E-01
    0.13501635639668118499E-01
    0.12266563135672758911E-01
    0.12645288726687870656E-01
    0.14151342567155552471E-01
    0.95364007090597540522E-02
    0.11199631026669844974E-01
    0.41730565620065884769E-02
    0.77003352005152302800E-02
    0.11606494417087175747E-01
    0.55244390029447103599E-02
    0.15385444188324836484E-01
    0.15874399050477942114E-01
    0.13948164505705622218E-01
    0.15896468780753202077E-01
    0.15632717305403765612E-01
    0.16509146736833575642E-01
    0.15366714402301683354E-01
    0.59068634776865787048E-02
    0.54087701332768889015E-02
    0.29406708966185756554E-02
    0.27745729521917606580E-02
    0.31355986118719162727E-02
    0.78508041460000899114E-02
    0.11944586318802694405E-01
    0.14786854696927807448E-01
    0.12960436551081182949E-01
    0.14306106815799950888E-01
    0.12016374829878065378E-01
    0.13415565150370763539E-01
    0.16593440624330765137E-01
    0.16518428830466329316E-01
    0.16896718294214817246E-01
    0.17026032885263647082E-01
    0.16368317641990873940E-01
    0.96943976232162429318E-02
    0.74405632907690580011E-02
    0.28691951297045914168E-02
    0.70338045669905936361E-02
    0.36396841868778064336E-02
    0.34232706789048949342E-02
    0.12455700734549580988E-01
    0.50293370813710618419E-02
    0.94314513846820713372E-02
    0.12298906334078613806E-01
    0.11966847935465945232E-01
    0.52775821682380010674E-02
    0.95344656049400865194E-02
    0.21828405600103780414E-02
    0.24947770317019358870E-02
    0.20140652581825519395E-02
    0.26520437416687491806E-02
    0.28707387475420714958E-02
    0.20053708828021775228E-02
    0.21458647311375410663E-02
    0.60640525609080200148E-02
    0.10893939566866957941E-01
    0.37181798490248081993E-02
    0.11568890311065310739E-01
    0.10046394825401747108E-01
    0.31841093655250386936E-02
    0.73816079648485041428E-02
    0.13377220303943688356E-01
    0.14878080280804169971E-01
    0.12983243920236722108E-01
    0.14445424213560178334E-01
    0.15151318284298664896E-01
    0.13824105250221627866E-01
    0.12703181564919056867E-01
    0.18764851747099478996E-02
    0.18022779397449831349E-02
    0.16497344826889111160E-02
    0.21395551646269349300E-02
    0.20675767529636942220E-02
    0.16726270044588190458E-02
    0.17002858655946328104E-02
    0.14926943482643917696E-01
    0.15785442693422638977E-01
    0.16466206019125274873E-01
    0.15225708910807423530E-01
    0.16962410187966757424E-01
    0.15262899941289168049E-01
    0.12898402250798694096E-01
    0.14378082311348162892E-01
    0.15093094840523749167E-01
    0.12756902425863955730E-01
    0.14166087835746693155E-01
    0.11337626577775958975E-01
    0.13809745597784830323E-01
    0.13075405861119802214E-01
    0.12228735395651557649E-01
    0.12207267866627062591E-01
    0.24025515457001198061E-02
    0.28569147591392509214E-02
    0.24150809068862024234E-02
    0.27521619827653117686E-02
    0.29986638052412035137E-02
    0.12861953306472592717E-01
    0.15136679836553165387E-01
    0.13712328988363898727E-01
    0.13913102172845361396E-01
    0.15020283924433783587E-01
    0.64040587272848753519E-02
    0.10357315042854569470E-01
    0.11538604074548715339E-01
    0.48088336340501918950E-02
    0.87612224962634599468E-02
    0.14847106380110466212E-01
    0.13280721629526591118E-01
    0.14382834066728971897E-01
    0.12866110610982238807E-01
    0.13826676633472832767E-01
    0.38574667149054997495E-02
    0.11149505656089589434E-01
    0.73146399427238091226E-02
    0.67969606368249897710E-02
    0.10601830121188255199E-01
    0.16362461172389944353E-01
    0.16057657636400955725E-01
    0.16164958201695077411E-01
    0.16301112865675336516E-01
    0.17185975580681623481E-01
    0.23487865470588264669E-02
    0.31722958339083957846E-02
    0.25846654366133261019E-02
    0.25477531272953542023E-02
    0.29532712359398322760E-02
    0.21493991385279969872E-02
    0.20340886341565717413E-02
    0.22584742768089411183E-02
    0.19963901950515983673E-02
    0.24094424852315332597E-02
    0.15293461300192889157E-01
    0.16100034157553098219E-01
    0.16137119112246623570E-01
    0.15818191196234652335E-01
    0.16259937782391032518E-01
    0.11016112742628914739E-01
    0.10691442221744392599E-01
    0.12271105688546384005E-01
    0.11756596653725054358E-01
    0.12637747850349434486E-01
    0.14322354654109361108E-01
    0.12664778285261336921E-01
    0.12858628977164407101E-01
    0.14083854336815887498E-01
    0.14588258309916562680E-01
    0.12904959716319552854E-01
    0.12454283055496945601E-01
    0.12101897705066894106E-01
    0.40129894170851804214E-02
    0.10499175959365589922E-01
    0.19699982460222049269E-02
    0.21223258430595574875E-02
    0.25512121039303076869E-02
    0.25491144619940245275E-02
    0.25229385360681848109E-02
    0.28436651014093379530E-02
    0.31576874901145567456E-02
    0.47136593884354429165E-02
    0.85366160898488942926E-02
    0.11153966648601092507E-01
    0.10863886126994123232E-01
    0.11793199009891418283E-01
    0.16212590122415073551E-01
    0.15668931659899187903E-01
    0.17196050117693841702E-01
    0.15825951924929467646E-01
    0.11550939393817483483E-01
    0.38038150053543795873E-02
    0.54276838406620304261E-02
    0.15073505333460704425E-01
    0.14700695375279727167E-01
    0.25103924548086366773E-02
    0.20847769444201180548E-02
    0.19231840459892814849E-02
    0.85372877893504228730E-02
    0.32140943701974991967E-02
    0.28762749027597248920E-02
    0.11996793268335833108E-01
    0.13063085824362694748E-01
    0.98360678489581038902E-02
    0.13868598892001572642E-01
    0.12602912891294412376E-01
    0.12574163939847378055E-01
    0.33312879113989559213E-02
    0.32931206890816034846E-02
    0.22776783671631046016E-02
    0.15559928387090110613E-01
    0.16143100952890739042E-01
    0.14886971323192790817E-01
    0.22180769389635911562E-02
    0.21352064642811753072E-02
    0.17507568152713981480E-02
    0.20579587422426145159E-02
    0.18421085256365282972E-02
    0.16661512502364984531E-02
    0.14876876969223840758E-01
    0.16849911477891110767E-01
    0.15660441269079842380E-01
    0.15279279360544018029E-01
    0.10302840645137992248E-01
    0.13675048049208705231E-01
    0.11795795594464609027E-01
    0.11885076696573172034E-01
    0.31179784256139524840E-02
    0.11378005906650497797E-01
    0.98197810289882385415E-02
    0.49852511012225360007E-02
    0.15856033251284810948E-01
    0.16227124968168825381E-01
    0.15750066071114957739E-01
    0.14245219126207612007E-01
    0.13758286295239341435E-01
    0.26885722030597549587E-02
    0.35604866748363810797E-02
    0.18163095737295767602E-02
    0.19199843076971104261E-02
    0.12790504496975503568E-01
    0.11892338021521592362E-01
    0.15413185979385832670E-02
    0.15614060324098918194E-02
    0.11699067031474842324E-01
    0.37148689739557750472E-02
    0.34083549961547773138E-02
    0.15315591738830288543E-01
    0.24299329380452886797E-02
    0.11801341183246837757E-01
    0.17249628802669544902E-01
    0.25534617694022198123E-02
    0.15213418326099233807E-01
    0.12549900762640767496E-01
    0.13638985748993500205E-01
    0.11630171648022366582E-01
    0.13328619978159116088E-01
    0.24712187570859875038E-02
    0.27482357604449491120E-02
    0.97727773167768129670E-02
    0.12184473186800668168E-01
    0.15185270548897407406E-01
    0.44868165149119249718E-02
    0.15180884035976401070E-01
    0.12787328180196523217E-01
    0.14215866312441403224E-01
    0.32027014805101729558E-02
    0.21705465485232196612E-02
    0.19377669126310445753E-02
    0.53064400029147907462E-02
    0.44600621890925739449E-02
    0.16337538653794564034E-02
    0.16043862059428016208E-02
    0.17392009102954891515E-02
    0.16454376237438859965E-02
    0.29187510466700053446E-02
    0.76838686663835524537E-02
    0.84730422753607585740E-02
    0.94414514670946060593E-02
    0.97200390216797862009E-02
    0.93206329907729382200E-02
    0.83535338825047947275E-02
    0.67644443347742895523E-02
    0.79009312128759997401E-02
    0.75122957461007259031E-02
    0.50794500018523560531E-02
    0.25129773761093862627E-02
    0.21079024035333127074E-02
    0.18240639558766188599E-02
    0.16179808163081961514E-02
    0.16468907190285626309E-02
    0.16646941348016669904E-02
    0.16636865082774354892E-02
    0.16247146546751270197E-02
    0.15959018916883237031E-02
    0.16382291084495012763E-02
    0.20547371229869366635E-02
    0.21079903818179350321E-02
    0.20680582086522788371E-02
    0.19698809195835358631E-02
    0.18074324815157817668E-02
    0.16601038877649019684E-02
    0.16034786514348515693E-02
