# vtk DataFile Version 3.0
LAPLACIEN  2D
ASCII
DATASET UNSTRUCTURED_GRID
 POINTS         391  float
  0.50371505999999999       0.50367786999999997        0.0000000000000000     
  0.29013556000000001       0.29014535000000002        0.0000000000000000     
  0.70165584999999997       0.71206597999999999        0.0000000000000000     
  0.70304188999999995       0.30176619999999998        0.0000000000000000     
  0.30920671999999999       0.71149227999999998        0.0000000000000000     
  0.79044983999999996       0.49884783999999999        0.0000000000000000     
  0.49102621000000002       0.20968644000000000        0.0000000000000000     
  0.49912957000000002       0.77208717000000004        0.0000000000000000     
  0.21724072999999999       0.48989389000000000        0.0000000000000000     
  0.83255933999999998       0.83046598000000005        0.0000000000000000     
  0.16646774000000000       0.17015694000000001        0.0000000000000000     
  0.83054514999999995       0.16736480000000001        0.0000000000000000     
  0.16953130999999999       0.83265739000000005        0.0000000000000000     
  0.42166445000000002       0.36345201999999999        0.0000000000000000     
  0.64462200999999997       0.56347807999999999        0.0000000000000000     
  0.35324633999999999       0.56311191000000005        0.0000000000000000     
  0.65456411000000003       0.84856860999999995        0.0000000000000000     
  0.35141477999999998       0.15563974000000000        0.0000000000000000     
  0.15290967000000000       0.35206625000000003        0.0000000000000000     
  0.82942241000000005       0.34936866000000000        0.0000000000000000     
  0.84390527000000004       0.64441694999999999        0.0000000000000000     
  0.63699174999999997       0.14284276000000001        0.0000000000000000     
  0.15620682999999999       0.64648446999999998        0.0000000000000000     
  0.36426062999999997       0.85756310999999996        0.0000000000000000     
  0.63489340999999999       0.40519052000000000        0.0000000000000000     
  0.52518872999999999       0.65957078000000002        0.0000000000000000     
  0.32158959999999998       0.42298103999999997        0.0000000000000000     
  0.58861710000000000       0.31711036999999997        0.0000000000000000     
  0.42078418000000001       0.69497151999999995        0.0000000000000000     
  0.48608786999999998       0.89334152000000000        0.0000000000000000     
   9.7084320000000002E-002  0.50000000000000000        0.0000000000000000     
  0.90291568000000000       0.50000000000000000        0.0000000000000000     
  0.51392453000000005       0.10668648999999999        0.0000000000000000     
  0.59792566999999996       0.73122754000000001        0.0000000000000000     
  0.74510058999999995       0.41124730999999998        0.0000000000000000     
  0.73212551999999997       0.90191560000000004        0.0000000000000000     
   9.7784830000000003E-002  0.26957329000000002        0.0000000000000000     
  0.26711221000000002        9.8671499999999995E-002   0.0000000000000000     
  0.90191560000000004       0.26787448000000003        0.0000000000000000     
  0.90118569000000004       0.73039821000000005        0.0000000000000000     
  0.73122947000000005        9.8017859999999998E-002   0.0000000000000000     
   9.8084400000000002E-002  0.73212551999999997        0.0000000000000000     
  0.26957329000000002       0.90221516999999996        0.0000000000000000     
  0.39283522999999998       0.25360379000000000        0.0000000000000000     
  0.74480864000000002       0.60495284999999999        0.0000000000000000     
  0.25505132000000003       0.60593640999999998        0.0000000000000000     
  0.52159297999999998       0.40671636000000000        0.0000000000000000     
  0.40768852000000000       0.47699891000000000        0.0000000000000000     
   9.1467049999999994E-002   9.1876959999999994E-002   0.0000000000000000     
  0.90842484999999995       0.90819225000000003        0.0000000000000000     
  0.90820104999999995        9.1566729999999999E-002   0.0000000000000000     
   9.1807449999999999E-002  0.90843574000000005        0.0000000000000000     
  0.27098960000000000       0.20527094000000001        0.0000000000000000     
  0.73457293999999995       0.79835387000000002        0.0000000000000000     
  0.79817773000000003       0.25713470999999999        0.0000000000000000     
  0.20747797000000001       0.72863946000000002        0.0000000000000000     
  0.20175195000000001       0.27583914999999998        0.0000000000000000     
  0.79603889000000005       0.72159035000000005        0.0000000000000000     
  0.71761666000000002       0.19748431999999999        0.0000000000000000     
  0.28462607000000001       0.80251899999999998        0.0000000000000000     
  0.69134598999999997       0.49261972999999998        0.0000000000000000     
  0.44720578999999999       0.58582935999999997        0.0000000000000000     
  0.24242269999999999       0.37228174000000003        0.0000000000000000     
  0.38265623999999998       0.93072131999999996        0.0000000000000000     
  0.60971754000000000       0.91988369000000003        0.0000000000000000     
   7.9163609999999995E-002  0.60979116000000000        0.0000000000000000     
  0.92010649000000000       0.61081183999999999        0.0000000000000000     
  0.61954008999999999        7.1530830000000004E-002   0.0000000000000000     
  0.91882012999999996       0.38917363999999999        0.0000000000000000     
  0.39086346000000000        8.0652249999999995E-002   0.0000000000000000     
   7.9183480000000001E-002  0.38966213000000000        0.0000000000000000     
  0.59114111999999996       0.49294315000000000        0.0000000000000000     
  0.63337980999999999       0.64485914000000000        0.0000000000000000     
  0.50012352000000004       0.29676539000000002        0.0000000000000000     
  0.82552601000000003       0.92753492000000004        0.0000000000000000     
  0.92774772999999999       0.82498556999999995        0.0000000000000000     
   7.1970870000000006E-002  0.17510291000000000        0.0000000000000000     
  0.17422821999999999        7.2635640000000001E-002   0.0000000000000000     
  0.82510813000000005        7.2134840000000006E-002   0.0000000000000000     
  0.92754665000000003       0.17446275999999999        0.0000000000000000     
  0.17501022999999999       0.92789951999999998        0.0000000000000000     
   7.2464680000000004E-002  0.82554053000000005        0.0000000000000000     
  0.30731587999999999       0.50885354999999999        0.0000000000000000     
  0.59033407999999998       0.22171178999999999        0.0000000000000000     
  0.40109191999999999       0.78725542000000004        0.0000000000000000     
  0.35420917000000002       0.63754104000000000        0.0000000000000000     
  0.15983976999999999       0.56665573000000002        0.0000000000000000     
  0.84108459999999996       0.56757886999999996        0.0000000000000000     
  0.83902096000000004       0.43344338999999998        0.0000000000000000     
  0.43230028999999998       0.16004268999999999        0.0000000000000000     
  0.57536027999999995       0.83041363999999995        0.0000000000000000     
  0.15771898000000001       0.42747892999999998        0.0000000000000000     
  0.34021692999999997       0.34221559000000001        0.0000000000000000     
  0.56002271999999997       0.57501117999999996        0.0000000000000000     
  0.65344329000000001       0.78147597999999996        0.0000000000000000     
   0.0000000000000000        0.0000000000000000        0.0000000000000000     
   1.0000000000000000        0.0000000000000000        0.0000000000000000     
   1.0000000000000000        1.0000000000000000        0.0000000000000000     
   0.0000000000000000        1.0000000000000000        0.0000000000000000     
  0.11111111000000000        0.0000000000000000        0.0000000000000000     
  0.22222222000000000        0.0000000000000000        0.0000000000000000     
  0.33333332999999998        0.0000000000000000        0.0000000000000000     
  0.44444444000000000        0.0000000000000000        0.0000000000000000     
  0.55555555999999995        0.0000000000000000        0.0000000000000000     
  0.66666667000000002        0.0000000000000000        0.0000000000000000     
  0.77777777999999997        0.0000000000000000        0.0000000000000000     
  0.88888889000000004        0.0000000000000000        0.0000000000000000     
   1.0000000000000000       0.11111111000000000        0.0000000000000000     
   1.0000000000000000       0.22222222000000000        0.0000000000000000     
   1.0000000000000000       0.33333332999999998        0.0000000000000000     
   1.0000000000000000       0.44444444000000000        0.0000000000000000     
   1.0000000000000000       0.55555555999999995        0.0000000000000000     
   1.0000000000000000       0.66666667000000002        0.0000000000000000     
   1.0000000000000000       0.77777777999999997        0.0000000000000000     
   1.0000000000000000       0.88888889000000004        0.0000000000000000     
  0.88888889000000004        1.0000000000000000        0.0000000000000000     
  0.77777777999999997        1.0000000000000000        0.0000000000000000     
  0.66666667000000002        1.0000000000000000        0.0000000000000000     
  0.55555555999999995        1.0000000000000000        0.0000000000000000     
  0.44444444000000000        1.0000000000000000        0.0000000000000000     
  0.33333332999999998        1.0000000000000000        0.0000000000000000     
  0.22222222000000000        1.0000000000000000        0.0000000000000000     
  0.11111111000000000        1.0000000000000000        0.0000000000000000     
   0.0000000000000000       0.11111111000000000        0.0000000000000000     
   0.0000000000000000       0.22222222000000000        0.0000000000000000     
[...]
 CELL_DATA         354
 SCALARS V float
 LOOKUP_TABLE default
    0.21291011413995604602E-02
    0.67449834488329425686E-02
    0.16152466613699313462E-02
    0.16458978553953590440E-02
    0.24573086946930900072E-02
    0.29147971323776216725E-02
    0.10738771336891869690E-01
    0.63940525189386410859E-02
    0.12270187190573305508E-01
    0.13225061988941907293E-01
    0.15360686078622114159E-01
    0.14451185351279779642E-01
    0.15629772062220003565E-01
    0.15797161382150329278E-01
    0.15494569249915986914E-01
    0.15783639059239792241E-01
    0.14996512967876147321E-01
    0.13786936458655123933E-01
    0.98834362793210686626E-02
    0.12604106266957012389E-01
    0.85505873621314690269E-02
    0.10313676624395994030E-01
    0.12052455740114454211E-01
    0.11017515809024481382E-01
    0.12177585151952349460E-01
    0.11834528660801511141E-01
    0.88648098081365554746E-02
    0.11034272147316531720E-01
    0.65833003492295396469E-02
    0.46524417563609133525E-02
    0.23519999745211491241E-02
    0.26812515672457884822E-02
    0.21619591340313383011E-02
    0.19171016448987349395E-02
    0.16740051512857585542E-02
    0.17872418171538291543E-02
    0.16404046948419064890E-02
    0.16449932578637383677E-02
    0.17493383934095718679E-02
    0.16724978002817523278E-02
    0.17573390046755272328E-02
    0.17727121467468595281E-02
    0.18041857821969170799E-02
    0.17808234478567548913E-02
    0.17978595878434878216E-02
    0.16879144644152714247E-02
    0.16238262384696408244E-02
    0.16441725108657511290E-02
    0.16056543482419396041E-02
    0.15771740190977726059E-02
    0.15794252419436779523E-02
    0.15464658481364195082E-02
    0.22048788794236163537E-02
    0.22250661574209438381E-02
    0.24053589197449614170E-02
    0.22680830879058489977E-02
    0.23963755673065178023E-02
    0.23336285615967672716E-02
    0.22456240610086823650E-02
    0.22995961359945789847E-02
    0.21651885155606442716E-02
    0.19883286311170754110E-02
    0.17438222583038185624E-02
    0.18835220602460968440E-02
    0.16799968506961216255E-02
    0.15851051464819735336E-02
    0.14979180259128217940E-02
    0.15265974176141459354E-02
    0.15449660285945698152E-01
    0.14538769932381312780E-01
    0.14046773279602985107E-01
    0.14925988429632476573E-01
    0.14371497251838559125E-01
    0.14543271255949247883E-01
    0.13107866092041377259E-01
    0.11915261018336044396E-01
    0.12282704963008185539E-01
    0.13747531381254769409E-01
    0.92461139343436998805E-02
    0.10860468929676719146E-01
    0.40629074884684195090E-02
    0.74708650266674192855E-02
    0.11250455564551821441E-01
    0.53734581601321256689E-02
    0.14964474587482280016E-01
    0.15453952401530159783E-01
    0.13656444397972502397E-01
    0.15450081850557621788E-01
    0.15211314255538970278E-01
    0.16047778806164574722E-01
    0.14980682384460063117E-01
    0.57308922476969831675E-02
    0.52485230954680143003E-02
    0.28585212125214875395E-02
    0.26941403871493484201E-02
    0.30493870810912935936E-02
    0.76065949532039900741E-02
    0.11597246476223361383E-01
    0.14360535012581875439E-01
    0.12587155327849175804E-01
    0.13892618099427506834E-01
    0.11672239430260009097E-01
    0.13024618980601322324E-01
    0.16145277627218762584E-01
    0.16071335045813091996E-01
    0.16435599377134207932E-01
    0.16558210414596791216E-01
    0.15931016807660070000E-01
    0.93896867281785204723E-02
    0.72199753833509239254E-02
    0.27850624625311210837E-02
    0.68220952665484719049E-02
    0.35406050589905880763E-02
    0.33299007104556719444E-02
    0.12099280814998929906E-01
    0.48866405147594254438E-02
    0.91355417269850941464E-02
    0.11925782215099919870E-01
    0.11601977346206999997E-01
    0.51308102543378255114E-02
    0.92354928223409502031E-02
    0.21197025560932866543E-02
    0.24227224867743829377E-02
    0.19559681865519572448E-02
    0.25750649704656229655E-02
    0.27875644727341866193E-02
    0.19478475289450903653E-02
    0.20839334508677364276E-02
    0.58858291781388686476E-02
    0.10559819199492521263E-01
    0.36168479510072151090E-02
    0.11216458196970313654E-01
    0.97391012883935017957E-02
    0.30991822745325202197E-02
    0.71637242157431366835E-02
    0.12993742402924817608E-01
    0.14458050210767988200E-01
    0.12610801514381944632E-01
    0.14031703528390960731E-01
    0.14730393359026422787E-01
    0.13429704933646893078E-01
    0.12341837115752929410E-01
    0.18227993720250842968E-02
    0.17509341922790687494E-02
    0.16032980254232526585E-02
    0.20775538547043790986E-02
    0.20077928221220089217E-02
    0.16254954635849991861E-02
    0.16522568398429726775E-02
    0.14510059087641045961E-01
    0.15367360295192046202E-01
    0.16004352195105153722E-01
    0.14808969769293526403E-01
    0.16491606239285243329E-01
    0.14845247832560217599E-01
    0.12528503025756150546E-01
    0.13964858252248187748E-01
    0.14659706497146957060E-01
    0.12390363542340684239E-01
    0.13752172858237939057E-01
    0.10994771111613729081E-01
    0.13410662146159078173E-01
    0.12698124613876175457E-01
    0.11877556864542351822E-01
    0.11835097408866632543E-01
    0.23322798457482089157E-02
    0.27731190138188632592E-02
    0.23441085355655239160E-02
    0.26722486699693897595E-02
    0.29117676968652716520E-02
    0.12497699124871173432E-01
    0.14709434744979897614E-01
    0.13317015856007544117E-01
    0.13520385597197790567E-01
    0.14601618208324044015E-01
    0.62135015094186042683E-02
    0.10037130188135089115E-01
    0.11183328587671204427E-01
    0.46748105771794931651E-02
    0.84974278866798216847E-02
    0.14431846628946294261E-01
    0.12904230395089404809E-01
    0.13976081479691371268E-01
    0.12499828694711157678E-01
    0.13424380814315003962E-01
    0.37514215927221530519E-02
    0.10807248774311304512E-01
    0.70978332131772809560E-02
    0.65924118720132396723E-02
    0.10274328643615871642E-01
    0.15934343781987644895E-01
    0.15620915611197664502E-01
    0.15747664975946356475E-01
    0.15860486541029117369E-01
    0.16743669477459522527E-01
    0.22799547183186977609E-02
    0.30838763559304623388E-02
    0.25098654176143896967E-02
    0.24728379365421470845E-02
    0.28705325697174184987E-02
    0.20877234908913138052E-02
    0.19750600177715089273E-02
    0.21929008863315188269E-02
    0.19387941284898313823E-02
    0.23399588134203619383E-02
    0.14928604113724402991E-01
    0.15648355742291578108E-01
    0.15704137016826415219E-01
    0.15392835955185396601E-01
    0.15806434134958607940E-01
    0.10680127297679389148E-01
    0.10362812230304904379E-01
    0.11911907580706999205E-01
    0.11414585306509836271E-01
    0.12276294991530427303E-01
    0.13914890032083631830E-01
    0.12300489332324231889E-01
    0.12492389426354194581E-01
    0.13682221276024749551E-01
    0.14268673429622940468E-01
    0.12663609517745019750E-01
    0.12228352518737762439E-01
    0.11733590266092493865E-01
    0.39077004909503160537E-02
    0.10172131498862060223E-01
    0.19133327270052969023E-02
    0.20608839659918675585E-02
    0.24770583878813354217E-02
    0.24749766780234562155E-02
    0.24492721265889118298E-02
    0.27634490574960967127E-02
    0.30728179421072874047E-02
    0.45756273119909865107E-02
    0.82842558185664202930E-02
    0.10825710314867016681E-01
    0.10539445914613351785E-01
    0.11456291505017798804E-01
    0.15770195052445836609E-01
    0.15225399862483527877E-01
    0.16734142440108550759E-01
    0.15395826063918434390E-01
    0.11194907320543030088E-01
    0.37020962654616650089E-02
    0.52758873042296379474E-02
    0.14656081766106958744E-01
    0.14274263802103757254E-01
    0.24371453769761451148E-02
    0.20242628664644954015E-02
    0.18680723580045590759E-02
    0.82732440705640831330E-02
    0.31265464830214058714E-02
    0.27992016921303737066E-02
    0.11642626030513920921E-01
    0.12692450021075735861E-01
    0.95403824491950596498E-02
    0.13466468097693936809E-01
    0.12246666852437288961E-01
    0.12215694828423107055E-01
    0.32383599852671188755E-02
    0.32004488994620450444E-02
    0.22117592711596877932E-02
    0.15136793394590978765E-01
    0.15690411457926985855E-01
    0.14460905214859287940E-01
    0.21535993461626410511E-02
    0.20731008706188908119E-02
    0.17011060761199911420E-02
    0.19984339036419667898E-02
    0.17892621153698408647E-02
    0.16192944866973374516E-02
    0.14443968299589882154E-01
    0.16397507119030672873E-01
    0.15234790252085073092E-01
    0.14858065858281735774E-01
    0.99867752463772448135E-02
    0.13276178308910284095E-01
    0.11455551063041302662E-01
    0.11534684549731707981E-01
    0.30312785773564492053E-02
    0.11030052707383629362E-01
    0.95090607897542582527E-02
    0.48435870000073898145E-02
    0.15422345191453266933E-01
    0.15780261008676108730E-01
    0.15354423365367519949E-01
    0.13835484852560201580E-01
    0.13362094396591911796E-01
    0.26115644197641039309E-02
    0.34629621706439425374E-02
    0.17644943766807741608E-02
    0.18647618789263587132E-02
    0.12408192026520563703E-01
    0.11541472225745573812E-01
    0.14988178826501250256E-02
    0.15180530993798039760E-02
    0.11352906374943041307E-01
    0.36120843184913558992E-02
    0.33155830614399754881E-02
    0.14902331907288936252E-01
    0.23590148017380509378E-02
    0.11453672390371490153E-01
    0.16772919574060008580E-01
    0.24798249396615016510E-02
    0.14794756285829151199E-01
    0.12173076364128555121E-01
    0.13243460173911644068E-01
    0.11265388071389475372E-01
    0.12942482608552683884E-01
    0.23988937547454102991E-02
    0.26677078534602313709E-02
    0.94715901829660886779E-02
    0.11834729824331145440E-01
    0.14758790740244168843E-01
    0.43602801999747305833E-02
    0.14743209646353460512E-01
    0.12418366298332383230E-01
    0.13880257203082058126E-01
    0.31133499517817502661E-02
    0.21075523392662031882E-02
    0.18822125818237769521E-02
    0.51627892729461354049E-02
    0.43453643872934794024E-02
    0.15885837901177639331E-02
    0.15602956420225490113E-02
    0.16931567005758047482E-02
    0.16022600985165914682E-02
    0.28387489453276060040E-02
    0.74577690748098184395E-02
    0.82328490553690240189E-02
    0.91758298908436453090E-02
    0.94458297672032585923E-02
    0.90561868576205257347E-02
    0.81125517824290720170E-02
    0.65810159952160536198E-02
    0.76759392046857194414E-02
    0.72997171214105854159E-02
    0.49426370827619341836E-02
    0.24427368398036329242E-02
    0.20472056171024150331E-02
    0.17720862974937386016E-02
    0.15728485235990889539E-02
    0.16005383176083648293E-02
    0.16176394510128964434E-02
    0.16167280960875873245E-02
    0.15791167666432577577E-02
    0.15516495497529922583E-02
    0.15936380767220736585E-02
    0.19955294245953617005E-02
    0.20472580472710145104E-02
    0.20084573537781430161E-02
    0.19132776454722092221E-02
    0.17558191242469860065E-02
    0.16134337769329932556E-02
    0.15594123101578096294E-02
