# vtk DataFile Version 3.0
LAPLACIEN  2D
ASCII
DATASET UNSTRUCTURED_GRID
 POINTS         391  float
  0.50371505999999999       0.50367786999999997        0.0000000000000000     
  0.29013556000000001       0.29014535000000002        0.0000000000000000     
  0.70165584999999997       0.71206597999999999        0.0000000000000000     
  0.70304188999999995       0.30176619999999998        0.0000000000000000     
  0.30920671999999999       0.71149227999999998        0.0000000000000000     
  0.79044983999999996       0.49884783999999999        0.0000000000000000     
  0.49102621000000002       0.20968644000000000        0.0000000000000000     
  0.49912957000000002       0.77208717000000004        0.0000000000000000     
  0.21724072999999999       0.48989389000000000        0.0000000000000000     
  0.83255933999999998       0.83046598000000005        0.0000000000000000     
  0.16646774000000000       0.17015694000000001        0.0000000000000000     
  0.83054514999999995       0.16736480000000001        0.0000000000000000     
  0.16953130999999999       0.83265739000000005        0.0000000000000000     
  0.42166445000000002       0.36345201999999999        0.0000000000000000     
  0.64462200999999997       0.56347807999999999        0.0000000000000000     
  0.35324633999999999       0.56311191000000005        0.0000000000000000     
  0.65456411000000003       0.84856860999999995        0.0000000000000000     
  0.35141477999999998       0.15563974000000000        0.0000000000000000     
  0.15290967000000000       0.35206625000000003        0.0000000000000000     
  0.82942241000000005       0.34936866000000000        0.0000000000000000     
  0.84390527000000004       0.64441694999999999        0.0000000000000000     
  0.63699174999999997       0.14284276000000001        0.0000000000000000     
  0.15620682999999999       0.64648446999999998        0.0000000000000000     
  0.36426062999999997       0.85756310999999996        0.0000000000000000     
  0.63489340999999999       0.40519052000000000        0.0000000000000000     
  0.52518872999999999       0.65957078000000002        0.0000000000000000     
  0.32158959999999998       0.42298103999999997        0.0000000000000000     
  0.58861710000000000       0.31711036999999997        0.0000000000000000     
  0.42078418000000001       0.69497151999999995        0.0000000000000000     
  0.48608786999999998       0.89334152000000000        0.0000000000000000     
   9.7084320000000002E-002  0.50000000000000000        0.0000000000000000     
  0.90291568000000000       0.50000000000000000        0.0000000000000000     
  0.51392453000000005       0.10668648999999999        0.0000000000000000     
  0.59792566999999996       0.73122754000000001        0.0000000000000000     
  0.74510058999999995       0.41124730999999998        0.0000000000000000     
  0.73212551999999997       0.90191560000000004        0.0000000000000000     
   9.7784830000000003E-002  0.26957329000000002        0.0000000000000000     
  0.26711221000000002        9.8671499999999995E-002   0.0000000000000000     
  0.90191560000000004       0.26787448000000003        0.0000000000000000     
  0.90118569000000004       0.73039821000000005        0.0000000000000000     
  0.73122947000000005        9.8017859999999998E-002   0.0000000000000000     
   9.8084400000000002E-002  0.73212551999999997        0.0000000000000000     
  0.26957329000000002       0.90221516999999996        0.0000000000000000     
  0.39283522999999998       0.25360379000000000        0.0000000000000000     
  0.74480864000000002       0.60495284999999999        0.0000000000000000     
  0.25505132000000003       0.60593640999999998        0.0000000000000000     
  0.52159297999999998       0.40671636000000000        0.0000000000000000     
  0.40768852000000000       0.47699891000000000        0.0000000000000000     
   9.1467049999999994E-002   9.1876959999999994E-002   0.0000000000000000     
  0.90842484999999995       0.90819225000000003        0.0000000000000000     
  0.90820104999999995        9.1566729999999999E-002   0.0000000000000000     
   9.1807449999999999E-002  0.90843574000000005        0.0000000000000000     
  0.27098960000000000       0.20527094000000001        0.0000000000000000     
  0.73457293999999995       0.79835387000000002        0.0000000000000000     
  0.79817773000000003       0.25713470999999999        0.0000000000000000     
  0.20747797000000001       0.72863946000000002        0.0000000000000000     
  0.20175195000000001       0.27583914999999998        0.0000000000000000     
  0.79603889000000005       0.72159035000000005        0.0000000000000000     
  0.71761666000000002       0.19748431999999999        0.0000000000000000     
  0.28462607000000001       0.80251899999999998        0.0000000000000000     
  0.69134598999999997       0.49261972999999998        0.0000000000000000     
  0.44720578999999999       0.58582935999999997        0.0000000000000000     
  0.24242269999999999       0.37228174000000003        0.0000000000000000     
  0.38265623999999998       0.93072131999999996        0.0000000000000000     
  0.60971754000000000       0.91988369000000003        0.0000000000000000     
   7.9163609999999995E-002  0.60979116000000000        0.0000000000000000     
  0.92010649000000000       0.61081183999999999        0.0000000000000000     
  0.61954008999999999        7.1530830000000004E-002   0.0000000000000000     
  0.91882012999999996       0.38917363999999999        0.0000000000000000     
  0.39086346000000000        8.0652249999999995E-002   0.0000000000000000     
   7.9183480000000001E-002  0.38966213000000000        0.0000000000000000     
  0.59114111999999996       0.49294315000000000        0.0000000000000000     
  0.63337980999999999       0.64485914000000000        0.0000000000000000     
  0.50012352000000004       0.29676539000000002        0.0000000000000000     
  0.82552601000000003       0.92753492000000004        0.0000000000000000     
  0.92774772999999999       0.82498556999999995        0.0000000000000000     
   7.1970870000000006E-002  0.17510291000000000        0.0000000000000000     
  0.17422821999999999        7.2635640000000001E-002   0.0000000000000000     
  0.82510813000000005        7.2134840000000006E-002   0.0000000000000000     
  0.92754665000000003       0.17446275999999999        0.0000000000000000     
  0.17501022999999999       0.92789951999999998        0.0000000000000000     
   7.2464680000000004E-002  0.82554053000000005        0.0000000000000000     
  0.30731587999999999       0.50885354999999999        0.0000000000000000     
  0.59033407999999998       0.22171178999999999        0.0000000000000000     
  0.40109191999999999       0.78725542000000004        0.0000000000000000     
  0.35420917000000002       0.63754104000000000        0.0000000000000000     
  0.15983976999999999       0.56665573000000002        0.0000000000000000     
  0.84108459999999996       0.56757886999999996        0.0000000000000000     
  0.83902096000000004       0.43344338999999998        0.0000000000000000     
  0.43230028999999998       0.16004268999999999        0.0000000000000000     
  0.57536027999999995       0.83041363999999995        0.0000000000000000     
  0.15771898000000001       0.42747892999999998        0.0000000000000000     
  0.34021692999999997       0.34221559000000001        0.0000000000000000     
  0.56002271999999997       0.57501117999999996        0.0000000000000000     
  0.65344329000000001       0.78147597999999996        0.0000000000000000     
   0.0000000000000000        0.0000000000000000        0.0000000000000000     
   1.0000000000000000        0.0000000000000000        0.0000000000000000     
   1.0000000000000000        1.0000000000000000        0.0000000000000000     
   0.0000000000000000        1.0000000000000000        0.0000000000000000     
  0.11111111000000000        0.0000000000000000        0.0000000000000000     
  0.22222222000000000        0.0000000000000000        0.0000000000000000     
  0.33333332999999998        0.0000000000000000        0.0000000000000000     
  0.44444444000000000        0.0000000000000000        0.0000000000000000     
  0.55555555999999995        0.0000000000000000        0.0000000000000000     
  0.66666667000000002        0.0000000000000000        0.0000000000000000     
  0.77777777999999997        0.0000000000000000        0.0000000000000000     
  0.88888889000000004        0.0000000000000000        0.0000000000000000     
   1.0000000000000000       0.11111111000000000        0.0000000000000000     
   1.0000000000000000       0.22222222000000000        0.0000000000000000     
   1.0000000000000000       0.33333332999999998        0.0000000000000000     
   1.0000000000000000       0.44444444000000000        0.0000000000000000     
   1.0000000000000000       0.55555555999999995        0.0000000000000000     
   1.0000000000000000       0.66666667000000002        0.0000000000000000     
   1.0000000000000000       0.77777777999999997        0.0000000000000000     
   1.0000000000000000       0.88888889000000004        0.0000000000000000     
  0.88888889000000004        1.0000000000000000        0.0000000000000000     
  0.77777777999999997        1.0000000000000000        0.0000000000000000     
  0.66666667000000002        1.0000000000000000        0.0000000000000000     
  0.55555555999999995        1.0000000000000000        0.0000000000000000     
  0.44444444000000000        1.0000000000000000        0.0000000000000000     
  0.33333332999999998        1.0000000000000000        0.0000000000000000     
  0.22222222000000000        1.0000000000000000        0.0000000000000000     
  0.11111111000000000        1.0000000000000000        0.0000000000000000     
   0.0000000000000000       0.11111111000000000        0.0000000000000000     
   0.0000000000000000       0.22222222000000000        0.0000000000000000     
[...]
 CELL_DATA         354
 SCALARS V float
 LOOKUP_TABLE default
    0.20675849229877846409E-02
    0.65730206231381579918E-02
    0.15703811565972356466E-02
    0.16018958378319037798E-02
    0.23863659864177713503E-02
    0.28353447363399768982E-02
    0.10420815653956923275E-01
    0.62105720684217068095E-02
    0.11912189033881651068E-01
    0.12847980565282544896E-01
    0.14924811656808815302E-01
    0.14039006969980344017E-01
    0.15193090754556475702E-01
    0.15354198710880465062E-01
    0.15055387281713225600E-01
    0.15337277773415754906E-01
    0.14568308226317654153E-01
    0.13391683995161812043E-01
    0.95902580678285977156E-02
    0.12226536029186373458E-01
    0.83077451421742481291E-02
    0.10019087705806518571E-01
    0.11708119963049934409E-01
    0.10712133319445864277E-01
    0.11830234815128433737E-01
    0.11498080654623037133E-01
    0.86070042014750255954E-02
    0.10709236473180351254E-01
    0.64081998624825071281E-02
    0.45242205348439866117E-02
    0.22848686042416539027E-02
    0.26065639730410714373E-02
    0.20995071194526010450E-02
    0.18619186422679807197E-02
    0.16267985494122030616E-02
    0.17363062994173012431E-02
    0.15943866651572584196E-02
    0.15987412210083829130E-02
    0.16995365052279980816E-02
    0.16251343414446532340E-02
    0.17074416812904362559E-02
    0.17222711976774556127E-02
    0.17527648791501311380E-02
    0.17300590668215469307E-02
    0.17464930437607710523E-02
    0.16399210274926658264E-02
    0.15782111973352591812E-02
    0.15978318026349392755E-02
    0.15607889888763412916E-02
    0.15334639384528307368E-02
    0.15366612018237414596E-02
    0.15043929237183561575E-02
    0.21409374769723117822E-02
    0.21604668630560825392E-02
    0.23358248751843202137E-02
    0.22024254322701025677E-02
    0.23281966858140052366E-02
    0.22671049086521498708E-02
    0.21808872819947498767E-02
    0.22332899148238033633E-02
    0.21027478229710015387E-02
    0.19311389459882063839E-02
    0.16943310684851193605E-02
    0.18296300621273883617E-02
    0.16325223225137686957E-02
    0.15407469949429790888E-02
    0.14575782138067084042E-02
    0.14846804081979376316E-02
    0.15034688892584979064E-01
    0.14129700887309921964E-01
    0.13641263905887183669E-01
    0.14518864057327173639E-01
    0.13956603577311040704E-01
    0.14127356355797168405E-01
    0.12725993064158815093E-01
    0.11574699410427919874E-01
    0.11931091268395789540E-01
    0.13355627681635012446E-01
    0.89619236842826272005E-02
    0.10530965368559708564E-01
    0.39550996107752907013E-02
    0.72476097998561183136E-02
    0.10902796294108403619E-01
    0.52259217704300892082E-02
    0.14555164506165734969E-01
    0.15042676585185014645E-01
    0.13371651518861375763E-01
    0.15013895638795739587E-01
    0.14801438591916498549E-01
    0.15595930074862164247E-01
    0.14602887933373965082E-01
    0.55586963175225075420E-02
    0.50928327756441967022E-02
    0.27790005501605033120E-02
    0.26162557182491572548E-02
    0.29658871367837396672E-02
    0.73677973311965429953E-02
    0.11260644266690256893E-01
    0.13946674266338457415E-01
    0.12225236195901514197E-01
    0.13491345159472142162E-01
    0.11338773392314156763E-01
    0.12645386731940454206E-01
    0.15706661595376338741E-01
    0.15634777914785354114E-01
    0.15985366922063305034E-01
    0.16100636307276674358E-01
    0.15505101824589813397E-01
    0.90924440313442204953E-02
    0.70046237008033612748E-02
    0.27036052479558047440E-02
    0.66162951966686946864E-02
    0.34444818505843018824E-02
    0.32394156985361289430E-02
    0.11753557776036122062E-01
    0.47465782936625018629E-02
    0.88466630498366550378E-02
    0.11563913442694761374E-01
    0.11246728922816091878E-01
    0.49881465182352868748E-02
    0.89439046827937788986E-02
    0.20585338441980716682E-02
    0.23529470886353973970E-02
    0.18996617797518025941E-02
    0.25005309104234882747E-02
    0.27070432338798184127E-02
    0.18921013030389214130E-02
    0.20239287930284614002E-02
    0.57116419617850916132E-02
    0.10234674815572900042E-01
    0.35179227907382341553E-02
    0.10873331872454757713E-01
    0.94388901022016621911E-02
    0.30170184074126567796E-02
    0.69510244024305351679E-02
    0.12621906322398967343E-01
    0.14050254282476533352E-01
    0.12249622495431754590E-01
    0.13630126423795034876E-01
    0.14320123593287848243E-01
    0.13047039404909950913E-01
    0.11991601010496143187E-01
    0.17707632661296325051E-02
    0.17011607140682630246E-02
    0.15582515045550247943E-02
    0.20174753868431238510E-02
    0.19498614439713852619E-02
    0.15797842335357583157E-02
    0.16056801097162555665E-02
    0.14104116890895947167E-01
    0.14959455697851505723E-01
    0.15552399415520518772E-01
    0.14402942096883517009E-01
    0.16030689650180601075E-01
    0.14438221224493841266E-01
    0.12169899184927036873E-01
    0.13563816670118402849E-01
    0.14238924783083473091E-01
    0.12035121162242562454E-01
    0.13350576025690986948E-01
    0.10661023073741650313E-01
    0.13023550890633745630E-01
    0.12332135127264234886E-01
    0.11537172948914486970E-01
    0.11472665510714628520E-01
    0.22642037107176112877E-02
    0.26919734164882287361E-02
    0.22753551539826900527E-02
    0.25948594672368773678E-02
    0.28276436841681452244E-02
    0.12144415460048723493E-01
    0.14294494824246127551E-01
    0.12933562817458029229E-01
    0.13139286328349673860E-01
    0.14195066274629474651E-01
    0.60276136139103229927E-02
    0.97256141411145302644E-02
    0.10838562346791789232E-01
    0.45435094730284768944E-02
    0.82405717772581904557E-02
    0.14028416949388174129E-01
    0.12539074193513910505E-01
    0.13581145279882415183E-01
    0.12144729071072309437E-01
    0.13034159853302475576E-01
    0.36479454002754218428E-02
    0.10474386107635350746E-01
    0.68872403065938772246E-02
    0.63932226018324532849E-02
    0.99558029891652598253E-02
    0.15516635903693353632E-01
    0.15195560180940783507E-01
    0.15339220222660297083E-01
    0.15430961216596452562E-01
    0.16312179825076690565E-01
    0.22132686775219036039E-02
    0.29983186658739556171E-02
    0.24374380467702227819E-02
    0.24002722941646702226E-02
    0.27904786858910430626E-02
    0.20279747678604281153E-02
    0.19178573189499170670E-02
    0.21293776831550321159E-02
    0.18829846934999793211E-02
    0.22726601685106855716E-02
    0.14573073763168594916E-01
    0.15207073282666690173E-01
    0.15280497508624094755E-01
    0.14979208950374429260E-01
    0.15363218462171458756E-01
    0.10353031937670297696E-01
    0.10043562613036047942E-01
    0.11563640906696925903E-01
    0.11082941580335740200E-01
    0.11925881224834176605E-01
    0.13519448283502856489E-01
    0.11947058131323313318E-01
    0.12137248663809722254E-01
    0.13292415067092347436E-01
    0.13957150947001721597E-01
    0.12428033191827690673E-01
    0.12007345809049592075E-01
    0.11376554806809234532E-01
    0.38054861536494437139E-02
    0.98534743773146093310E-02
    0.18584231999535514353E-02
    0.20013559051542998378E-02
    0.24052626084890612462E-02
    0.24031808874060830647E-02
    0.23779366342289542761E-02
    0.26858195633957275203E-02
    0.29906863297335124080E-02
    0.44401218846594489933E-02
    0.80360337712650463382E-02
    0.10506205624980342883E-01
    0.10221867784700681969E-01
    0.11129810513118443965E-01
    0.15339884942086368796E-01
    0.14794888923808919082E-01
    0.16282411935328488378E-01
    0.14977473595419475705E-01
    0.10847393218846899249E-01
    0.36031037083582222007E-02
    0.51278591588036683685E-02
    0.14250540108516278337E-01
    0.13860351605203116709E-01
    0.23661884828476021508E-02
    0.19656287345226853766E-02
    0.18146587957447385744E-02
    0.80150117387700128835E-02
    0.30414435063847449110E-02
    0.27245722977791062523E-02
    0.11298722549533875628E-01
    0.12332345819724503319E-01
    0.92525482205795643587E-02
    0.13076373221339396974E-01
    0.11900741716386421809E-01
    0.11867182580435313086E-01
    0.31482524957567965471E-02
    0.31100924179314594700E-02
    0.21478993966388484904E-02
    0.14724045287415894745E-01
    0.15250842606453533790E-01
    0.14047485236710566259E-01
    0.20911263181717289900E-02
    0.20129245426824551000E-02
    0.16529624275304472501E-02
    0.19407508533695893866E-02
    0.17380346884234077528E-02
    0.15738484614849462644E-02
    0.14023838736725430937E-01
    0.15955761362646848911E-01
    0.14820820878936867906E-01
    0.14448727585018479591E-01
    0.96796422572823156982E-02
    0.12889280395640818205E-01
    0.11125553795349418101E-01
    0.11194330804801151669E-01
    0.29473489215769334976E-02
    0.10691309525587193094E-01
    0.92058791344865435746E-02
    0.47059253975734599562E-02
    0.15000761340178119657E-01
    0.15343311595400820763E-01
    0.14967599187225063412E-01
    0.13437891819406664468E-01
    0.12977805484748666798E-01
    0.25370983560747601727E-02
    0.33676768813356208060E-02
    0.17142565946535004255E-02
    0.18112327391430556485E-02
    0.12037602414357424785E-01
    0.11198670688643084375E-01
    0.14575715769848183838E-02
    0.14759834771975214544E-02
    0.11016507153353723852E-01
    0.35121448353352515206E-02
    0.32250762361110533495E-02
    0.14499146034220183193E-01
    0.22903230281951939343E-02
    0.11116328698837798367E-01
    0.16305927496816259581E-01
    0.24085239547452152661E-02
    0.14387982790016268231E-01
    0.11807671587548175529E-01
    0.12859826773401708544E-01
    0.10911750992265704940E-01
    0.12567965137102730597E-01
    0.23288312014522060019E-02
    0.25897314165892887372E-02
    0.91761476954293659525E-02
    0.11495833816995624371E-01
    0.14344815317229583224E-01
    0.42366570336955424597E-02
    0.14318260527705566065E-01
    0.12060696147117532656E-01
    0.13553178063995124231E-01
    0.30264501748618276820E-02
    0.20465251817023072736E-02
    0.18283836214749000192E-02
    0.50201007639994431331E-02
    0.42343959025729124152E-02
    0.15447290095767401193E-02
    0.15174736877829049335E-02
    0.16482827642236746232E-02
    0.15602190600199810147E-02
    0.27610295465092249412E-02
    0.72374031603295498755E-02
    0.79999282588592152132E-02
    0.89181123703218206922E-02
    0.91797785569048342968E-02
    0.87996229925465345445E-02
    0.78787906999994092305E-02
    0.64031957485391503490E-02
    0.74575150355698045443E-02
    0.70934816454678514819E-02
    0.48098976879339411933E-02
    0.23748034409998724538E-02
    0.19884100560695243745E-02
    0.17216960281022787409E-02
    0.15290581163980077918E-02
    0.15555865914654825721E-02
    0.15720144569107068026E-02
    0.15711947557745032430E-02
    0.15348882763441297483E-02
    0.15086976925977170581E-02
    0.15502886974251073923E-02
    0.19381749889472526215E-02
    0.19884364320558291575E-02
    0.19507289433290033332E-02
    0.18584415489929445933E-02
    0.17057969458090932457E-02
    0.15681694215941707152E-02
    0.15166126737545530985E-02
