# vtk DataFile Version 3.0
LAPLACIEN  2D
ASCII
DATASET UNSTRUCTURED_GRID
 POINTS         391  float
  0.50371505999999999       0.50367786999999997        0.0000000000000000     
  0.29013556000000001       0.29014535000000002        0.0000000000000000     
  0.70165584999999997       0.71206597999999999        0.0000000000000000     
  0.70304188999999995       0.30176619999999998        0.0000000000000000     
  0.30920671999999999       0.71149227999999998        0.0000000000000000     
  0.79044983999999996       0.49884783999999999        0.0000000000000000     
  0.49102621000000002       0.20968644000000000        0.0000000000000000     
  0.49912957000000002       0.77208717000000004        0.0000000000000000     
  0.21724072999999999       0.48989389000000000        0.0000000000000000     
  0.83255933999999998       0.83046598000000005        0.0000000000000000     
  0.16646774000000000       0.17015694000000001        0.0000000000000000     
  0.83054514999999995       0.16736480000000001        0.0000000000000000     
  0.16953130999999999       0.83265739000000005        0.0000000000000000     
  0.42166445000000002       0.36345201999999999        0.0000000000000000     
  0.64462200999999997       0.56347807999999999        0.0000000000000000     
  0.35324633999999999       0.56311191000000005        0.0000000000000000     
  0.65456411000000003       0.84856860999999995        0.0000000000000000     
  0.35141477999999998       0.15563974000000000        0.0000000000000000     
  0.15290967000000000       0.35206625000000003        0.0000000000000000     
  0.82942241000000005       0.34936866000000000        0.0000000000000000     
  0.84390527000000004       0.64441694999999999        0.0000000000000000     
  0.63699174999999997       0.14284276000000001        0.0000000000000000     
  0.15620682999999999       0.64648446999999998        0.0000000000000000     
  0.36426062999999997       0.85756310999999996        0.0000000000000000     
  0.63489340999999999       0.40519052000000000        0.0000000000000000     
  0.52518872999999999       0.65957078000000002        0.0000000000000000     
  0.32158959999999998       0.42298103999999997        0.0000000000000000     
  0.58861710000000000       0.31711036999999997        0.0000000000000000     
  0.42078418000000001       0.69497151999999995        0.0000000000000000     
  0.48608786999999998       0.89334152000000000        0.0000000000000000     
   9.7084320000000002E-002  0.50000000000000000        0.0000000000000000     
  0.90291568000000000       0.50000000000000000        0.0000000000000000     
  0.51392453000000005       0.10668648999999999        0.0000000000000000     
  0.59792566999999996       0.73122754000000001        0.0000000000000000     
  0.74510058999999995       0.41124730999999998        0.0000000000000000     
  0.73212551999999997       0.90191560000000004        0.0000000000000000     
   9.7784830000000003E-002  0.26957329000000002        0.0000000000000000     
  0.26711221000000002        9.8671499999999995E-002   0.0000000000000000     
  0.90191560000000004       0.26787448000000003        0.0000000000000000     
  0.90118569000000004       0.73039821000000005        0.0000000000000000     
  0.73122947000000005        9.8017859999999998E-002   0.0000000000000000     
   9.8084400000000002E-002  0.73212551999999997        0.0000000000000000     
  0.26957329000000002       0.90221516999999996        0.0000000000000000     
  0.39283522999999998       0.25360379000000000        0.0000000000000000     
  0.74480864000000002       0.60495284999999999        0.0000000000000000     
  0.25505132000000003       0.60593640999999998        0.0000000000000000     
  0.52159297999999998       0.40671636000000000        0.0000000000000000     
  0.40768852000000000       0.47699891000000000        0.0000000000000000     
   9.1467049999999994E-002   9.1876959999999994E-002   0.0000000000000000     
  0.90842484999999995       0.90819225000000003        0.0000000000000000     
  0.90820104999999995        9.1566729999999999E-002   0.0000000000000000     
   9.1807449999999999E-002  0.90843574000000005        0.0000000000000000     
  0.27098960000000000       0.20527094000000001        0.0000000000000000     
  0.73457293999999995       0.79835387000000002        0.0000000000000000     
  0.79817773000000003       0.25713470999999999        0.0000000000000000     
  0.20747797000000001       0.72863946000000002        0.0000000000000000     
  0.20175195000000001       0.27583914999999998        0.0000000000000000     
  0.79603889000000005       0.72159035000000005        0.0000000000000000     
  0.71761666000000002       0.19748431999999999        0.0000000000000000     
  0.28462607000000001       0.80251899999999998        0.0000000000000000     
  0.69134598999999997       0.49261972999999998        0.0000000000000000     
  0.44720578999999999       0.58582935999999997        0.0000000000000000     
  0.24242269999999999       0.37228174000000003        0.0000000000000000     
  0.38265623999999998       0.93072131999999996        0.0000000000000000     
  0.60971754000000000       0.91988369000000003        0.0000000000000000     
   7.9163609999999995E-002  0.60979116000000000        0.0000000000000000     
  0.92010649000000000       0.61081183999999999        0.0000000000000000     
  0.61954008999999999        7.1530830000000004E-002   0.0000000000000000     
  0.91882012999999996       0.38917363999999999        0.0000000000000000     
  0.39086346000000000        8.0652249999999995E-002   0.0000000000000000     
   7.9183480000000001E-002  0.38966213000000000        0.0000000000000000     
  0.59114111999999996       0.49294315000000000        0.0000000000000000     
  0.63337980999999999       0.64485914000000000        0.0000000000000000     
  0.50012352000000004       0.29676539000000002        0.0000000000000000     
  0.82552601000000003       0.92753492000000004        0.0000000000000000     
  0.92774772999999999       0.82498556999999995        0.0000000000000000     
   7.1970870000000006E-002  0.17510291000000000        0.0000000000000000     
  0.17422821999999999        7.2635640000000001E-002   0.0000000000000000     
  0.82510813000000005        7.2134840000000006E-002   0.0000000000000000     
  0.92754665000000003       0.17446275999999999        0.0000000000000000     
  0.17501022999999999       0.92789951999999998        0.0000000000000000     
   7.2464680000000004E-002  0.82554053000000005        0.0000000000000000     
  0.30731587999999999       0.50885354999999999        0.0000000000000000     
  0.59033407999999998       0.22171178999999999        0.0000000000000000     
  0.40109191999999999       0.78725542000000004        0.0000000000000000     
  0.35420917000000002       0.63754104000000000        0.0000000000000000     
  0.15983976999999999       0.56665573000000002        0.0000000000000000     
  0.84108459999999996       0.56757886999999996        0.0000000000000000     
  0.83902096000000004       0.43344338999999998        0.0000000000000000     
  0.43230028999999998       0.16004268999999999        0.0000000000000000     
  0.57536027999999995       0.83041363999999995        0.0000000000000000     
  0.15771898000000001       0.42747892999999998        0.0000000000000000     
  0.34021692999999997       0.34221559000000001        0.0000000000000000     
  0.56002271999999997       0.57501117999999996        0.0000000000000000     
  0.65344329000000001       0.78147597999999996        0.0000000000000000     
   0.0000000000000000        0.0000000000000000        0.0000000000000000     
   1.0000000000000000        0.0000000000000000        0.0000000000000000     
   1.0000000000000000        1.0000000000000000        0.0000000000000000     
   0.0000000000000000        1.0000000000000000        0.0000000000000000     
  0.11111111000000000        0.0000000000000000        0.0000000000000000     
  0.22222222000000000        0.0000000000000000        0.0000000000000000     
  0.33333332999999998        0.0000000000000000        0.0000000000000000     
  0.44444444000000000        0.0000000000000000        0.0000000000000000     
  0.55555555999999995        0.0000000000000000        0.0000000000000000     
  0.66666667000000002        0.0000000000000000        0.0000000000000000     
  0.77777777999999997        0.0000000000000000        0.0000000000000000     
  0.88888889000000004        0.0000000000000000        0.0000000000000000     
   1.0000000000000000       0.11111111000000000        0.0000000000000000     
   1.0000000000000000       0.22222222000000000        0.0000000000000000     
   1.0000000000000000       0.33333332999999998        0.0000000000000000     
   1.0000000000000000       0.44444444000000000        0.0000000000000000     
   1.0000000000000000       0.55555555999999995        0.0000000000000000     
   1.0000000000000000       0.66666667000000002        0.0000000000000000     
   1.0000000000000000       0.77777777999999997        0.0000000000000000     
   1.0000000000000000       0.88888889000000004        0.0000000000000000     
  0.88888889000000004        1.0000000000000000        0.0000000000000000     
  0.77777777999999997        1.0000000000000000        0.0000000000000000     
  0.66666667000000002        1.0000000000000000        0.0000000000000000     
  0.55555555999999995        1.0000000000000000        0.0000000000000000     
  0.44444444000000000        1.0000000000000000        0.0000000000000000     
  0.33333332999999998        1.0000000000000000        0.0000000000000000     
  0.22222222000000000        1.0000000000000000        0.0000000000000000     
  0.11111111000000000        1.0000000000000000        0.0000000000000000     
   0.0000000000000000       0.11111111000000000        0.0000000000000000     
   0.0000000000000000       0.22222222000000000        0.0000000000000000     
[...]
 CELL_DATA         354
 SCALARS V float
 LOOKUP_TABLE default
    0.30853485465796672005E-01
    0.40784601066967698935E-01
    0.22328056526127106063E-01
    0.18623883426510598471E-01
    0.33611264663364809335E-01
    0.36269165042371945273E-01
    0.43316689946853358106E-01
    0.39492214623166294052E-01
    0.46982645873951026094E-01
    0.50857334003348075857E-01
    0.58528068577477977696E-01
    0.54340862668376795075E-01
    0.60168699980903739277E-01
    0.59183966063435622385E-01
    0.56939529102095383373E-01
    0.58295973539039397382E-01
    0.54236472636825169835E-01
    0.50201035633992308060E-01
    0.43971547819288636649E-01
    0.46852878958815069588E-01
    0.42664092234846968943E-01
    0.43882569005293262099E-01
    0.47127031206509968631E-01
    0.45333446929076648413E-01
    0.47493966319858200997E-01
    0.46475061244822271633E-01
    0.43926754770717550691E-01
    0.45356712074852464922E-01
    0.41822886463820506397E-01
    0.38796390200802367831E-01
    0.33566022094140335330E-01
    0.36224779993927244681E-01
    0.30997036954175345019E-01
    0.28283949983249505322E-01
    0.24230156289694000649E-01
    0.26042959805049191446E-01
    0.23246718950129773018E-01
    0.23875106513449356055E-01
    0.25944970195822845277E-01
    0.24752808063944000544E-01
    0.26559693261090779742E-01
    0.26678793400656639068E-01
    0.27202919663521587385E-01
    0.26855153158723332751E-01
    0.26795892438955082326E-01
    0.25511460746751941225E-01
    0.24147871185547040845E-01
    0.24720497194063294211E-01
    0.23137147657318828109E-01
    0.21676193040250844174E-01
    0.19678781550947117146E-01
    0.20545410411575558418E-01
    0.31870591137236461976E-01
    0.32403793557230733957E-01
    0.34302327325705615768E-01
    0.33193021354659915656E-01
    0.34495514540905367062E-01
    0.33809732301693054546E-01
    0.32619565807563685733E-01
    0.33222472421470465587E-01
    0.31451245084798615248E-01
    0.29593988830102491844E-01
    0.26408449368720950112E-01
    0.28031318343220753414E-01
    0.24718604506802334397E-01
    0.22793126269444918125E-01
    0.19991712722561463811E-01
    0.21233181668177929929E-01
    0.70507390501692274176E-01
    0.63446190135935248700E-01
    0.59157078098743202943E-01
    0.66782804917182719828E-01
    0.61186046941788529985E-01
    0.61161208514322058793E-01
    0.54716620143537945953E-01
    0.51449862626232169271E-01
    0.53273575059862840475E-01
    0.58823762898402312538E-01
    0.42558399901654012099E-01
    0.45879285911409439791E-01
    0.38695162415456479943E-01
    0.40885174539027721585E-01
    0.46120686349596470843E-01
    0.39850275204471423407E-01
    0.68634808543200129249E-01
    0.79855051493903025928E-01
    0.87680351213718324410E-01
    0.72591517758580484387E-01
    0.70346534887765155286E-01
    0.75330596188151327519E-01
    0.83578151170951922588E-01
    0.40015658988191107892E-01
    0.39019761030247832045E-01
    0.34945298139590096065E-01
    0.34191846966421940435E-01
    0.36502705196415081990E-01
    0.41059897864907997367E-01
    0.51458126297247636094E-01
    0.61398589641063261446E-01
    0.53533839639602835703E-01
    0.59897998387088889627E-01
    0.51207479103455529057E-01
    0.56118779974807533883E-01
    0.72959934787819050173E-01
    0.73609920106125908967E-01
    0.81468910272379291282E-01
    0.81417834085900087082E-01
    0.71550973192031602776E-01
    0.43184440529464088177E-01
    0.40757230100257169081E-01
    0.34326702681864364186E-01
    0.40472761680362269454E-01
    0.36807604367696519776E-01
    0.36418663025726043247E-01
    0.50219285418666652354E-01
    0.39506760841477021884E-01
    0.42760535784561466699E-01
    0.47432318521206155715E-01
    0.47437746809590522479E-01
    0.40126581040954345525E-01
    0.42724902660885424877E-01
    0.30021330839454716394E-01
    0.32703615864296514681E-01
    0.27827496277737215347E-01
    0.33172920135418254572E-01
    0.34789100945624533423E-01
    0.28187898377829801594E-01
    0.29629564627377775327E-01
    0.40238115119992305668E-01
    0.45012596147696815052E-01
    0.38115696308686115856E-01
    0.47236024097404627486E-01
    0.44599665141765998388E-01
    0.38204720459041073555E-01
    0.40814446718874027031E-01
    0.54908201620965033096E-01
    0.59128416302256868453E-01
    0.51015466650503563106E-01
    0.60725852741182931305E-01
    0.63678537452766387217E-01
    0.53926574307748692538E-01
    0.51784885797932361795E-01
    0.26891187766791956743E-01
    0.26080592240411346744E-01
    0.23386454198298101126E-01
    0.29111522802243064434E-01
    0.28662661842463740131E-01
    0.24101612583966598724E-01
    0.24553009964652261488E-01
    0.63365539368957293775E-01
    0.70486912863970949128E-01
    0.74955307541680601946E-01
    0.66444950228931709546E-01
    0.77825367328274080991E-01
    0.65754054897027069959E-01
    0.54582129531661652266E-01
    0.60825815655848609886E-01
    0.62783319263472192606E-01
    0.54009547741874414095E-01
    0.58086254553872340711E-01
    0.45736284580922798026E-01
    0.54870496569974940015E-01
    0.51826267591632869947E-01
    0.50213057222419608949E-01
    0.47166335325715506854E-01
    0.31158795541411841989E-01
    0.34004035203624015382E-01
    0.31111207262642201488E-01
    0.33750563582834257337E-01
    0.35343145699783716507E-01
    0.53141700777660311195E-01
    0.62603782297963081471E-01
    0.55730888071939467532E-01
    0.57159342546063737767E-01
    0.62462876232767361451E-01
    0.40416148872362195332E-01
    0.44519794409276919334E-01
    0.45877079663653834440E-01
    0.39329307420641765325E-01
    0.42038539131981071673E-01
    0.64333275713574528121E-01
    0.56458636430179981458E-01
    0.62686412008988001698E-01
    0.54822860915144697169E-01
    0.58123611546419221008E-01
    0.38267936778931706254E-01
    0.45494292033170770362E-01
    0.40627889392543220515E-01
    0.40860459679335506267E-01
    0.44725009835686099779E-01
    0.70280174152149127442E-01
    0.66345554372669729437E-01
    0.71859723218616472495E-01
    0.66946684015976004600E-01
    0.77232586755813834034E-01
    0.30595092327496496015E-01
    0.36733960245225787122E-01
    0.32988245340563208952E-01
    0.32128692256042271080E-01
    0.35311073807584220097E-01
    0.30353026234605777478E-01
    0.28171780012400171600E-01
    0.30697555974386642186E-01
    0.28400786687744112441E-01
    0.32494824323341824079E-01
    0.86757533828043284507E-01
    0.73172768170889121442E-01
    0.79859668195102179178E-01
    0.70993346464762088766E-01
    0.73442770691431707997E-01
    0.45560911455279254345E-01
    0.45081600350136606659E-01
    0.50751124588125931525E-01
    0.49253564990095380360E-01
    0.52818906351638592045E-01
    0.59133500849393165477E-01
    0.53198402755094291450E-01
    0.53236367256112679391E-01
    0.59201668433131258984E-01
    0.87322835676001853145E-01
    0.91126117029985784224E-01
    0.91509075923629612515E-01
    0.47684869109678722221E-01
    0.38873480971768029080E-01
    0.43815575588970485932E-01
    0.28178377764444682146E-01
    0.29528440207279273155E-01
    0.33016276338217728781E-01
    0.32552771034268505879E-01
    0.32898338710397906359E-01
    0.35702689153754810225E-01
    0.36270842629614802322E-01
    0.38570846180686985116E-01
    0.43137873296674275614E-01
    0.48318817816659448416E-01
    0.47226338090084640786E-01
    0.51604966989610832895E-01
    0.64759449437472180189E-01
    0.61009007482689212032E-01
    0.76019072945383375783E-01
    0.66768372973475181853E-01
    0.45915455895508057449E-01
    0.38337285600669707142E-01
    0.39740882991832066073E-01
    0.66088501458052131832E-01
    0.60986262252249248683E-01
    0.32038112633346882419E-01
    0.28890104430379464490E-01
    0.27382549326316434762E-01
    0.42420037637218632742E-01
    0.37086595684056325450E-01
    0.36590650307862432333E-01
    0.50028948433328342127E-01
    0.51894019960996018437E-01
    0.43026647187214397960E-01
    0.58373707642001788909E-01
    0.51198959368671040360E-01
    0.50063300478032618512E-01
    0.36454899137186205782E-01
    0.37053443602604874130E-01
    0.30961229892436634842E-01
    0.65583452091838939646E-01
    0.62005145786125877294E-01
    0.55363359575843006100E-01
    0.29751144849310875301E-01
    0.29156161637534788733E-01
    0.25102540316266241938E-01
    0.28420418940750275666E-01
    0.26282815403661442116E-01
    0.23994082625478290599E-01
    0.59634404800841270267E-01
    0.76496690124601321448E-01
    0.67654384991942595473E-01
    0.64754660831667226750E-01
    0.43961664540731373862E-01
    0.57044681252051171461E-01
    0.50043456334845172473E-01
    0.48805544656998690878E-01
    0.36315526956114646540E-01
    0.45855951498711584879E-01
    0.42862829905549799936E-01
    0.38958051304854239560E-01
    0.69539825298865320935E-01
    0.73368072920428933914E-01
    0.83039467837718178300E-01
    0.57268060326823022610E-01
    0.55260242015087439327E-01
    0.34982239624610236839E-01
    0.37076642365164808046E-01
    0.25636411437233497246E-01
    0.26799829989139746511E-01
    0.48734833930689058779E-01
    0.47076305772384002823E-01
    0.21797903308368386799E-01
    0.22165661385984580800E-01
    0.49551951450427463020E-01
    0.36925700210796844059E-01
    0.36693913303638872603E-01
    0.67701013069425136637E-01
    0.31647152293123280431E-01
    0.48663886275154499828E-01
    0.78427705100185651776E-01
    0.33404677982501032596E-01
    0.66596267502563047391E-01
    0.48394242766145484369E-01
    0.55724101583239663005E-01
    0.45337754528727770842E-01
    0.55867097652450653511E-01
    0.31729063389819484042E-01
    0.33945333337591115930E-01
    0.43712787808666338230E-01
    0.52899661973502279388E-01
    0.61583432227382703394E-01
    0.38770689896436526245E-01
    0.62636757196742526288E-01
    0.53674721477761526411E-01
    0.87599530204710493453E-01
    0.36423286222060084760E-01
    0.30331465355396401706E-01
    0.28814883320581088921E-01
    0.39504579894046251698E-01
    0.38383463996541411500E-01
    0.21815427667924450206E-01
    0.20954301445981232677E-01
    0.17673852126185097405E-01
    0.17948527549083784227E-01
    0.36352315086903633223E-01
    0.43088498187964147101E-01
    0.49508616847660905091E-01
    0.54383089125506239858E-01
    0.54958668583939024321E-01
    0.51970304371469752680E-01
    0.45993281816219706848E-01
    0.41753324333742833363E-01
    0.43614260912573782347E-01
    0.42746167578576396706E-01
    0.39907502604534524082E-01
    0.35497834447626962218E-01
    0.30725431211631144129E-01
    0.25986663083265377355E-01
    0.22787862186201712777E-01
    0.24284789995606102103E-01
    0.24885979725876007651E-01
    0.24801473883655625330E-01
    0.23628724451537717194E-01
    0.22048201942588795121E-01
    0.19880085764977049184E-01
    0.30686844791176733083E-01
    0.31727248548332809275E-01
    0.31228728505033165330E-01
    0.29696564637030967854E-01
    0.27089272702000889020E-01
    0.24101152791751553894E-01
    0.20899659693565327684E-01
