# vtk DataFile Version 3.0
LAPLACIEN  2D
ASCII
DATASET UNSTRUCTURED_GRID
 POINTS         391  float
  0.50371505999999999       0.50367786999999997        0.0000000000000000     
  0.29013556000000001       0.29014535000000002        0.0000000000000000     
  0.70165584999999997       0.71206597999999999        0.0000000000000000     
  0.70304188999999995       0.30176619999999998        0.0000000000000000     
  0.30920671999999999       0.71149227999999998        0.0000000000000000     
  0.79044983999999996       0.49884783999999999        0.0000000000000000     
  0.49102621000000002       0.20968644000000000        0.0000000000000000     
  0.49912957000000002       0.77208717000000004        0.0000000000000000     
  0.21724072999999999       0.48989389000000000        0.0000000000000000     
  0.83255933999999998       0.83046598000000005        0.0000000000000000     
  0.16646774000000000       0.17015694000000001        0.0000000000000000     
  0.83054514999999995       0.16736480000000001        0.0000000000000000     
  0.16953130999999999       0.83265739000000005        0.0000000000000000     
  0.42166445000000002       0.36345201999999999        0.0000000000000000     
  0.64462200999999997       0.56347807999999999        0.0000000000000000     
  0.35324633999999999       0.56311191000000005        0.0000000000000000     
  0.65456411000000003       0.84856860999999995        0.0000000000000000     
  0.35141477999999998       0.15563974000000000        0.0000000000000000     
  0.15290967000000000       0.35206625000000003        0.0000000000000000     
  0.82942241000000005       0.34936866000000000        0.0000000000000000     
  0.84390527000000004       0.64441694999999999        0.0000000000000000     
  0.63699174999999997       0.14284276000000001        0.0000000000000000     
  0.15620682999999999       0.64648446999999998        0.0000000000000000     
  0.36426062999999997       0.85756310999999996        0.0000000000000000     
  0.63489340999999999       0.40519052000000000        0.0000000000000000     
  0.52518872999999999       0.65957078000000002        0.0000000000000000     
  0.32158959999999998       0.42298103999999997        0.0000000000000000     
  0.58861710000000000       0.31711036999999997        0.0000000000000000     
  0.42078418000000001       0.69497151999999995        0.0000000000000000     
  0.48608786999999998       0.89334152000000000        0.0000000000000000     
   9.7084320000000002E-002  0.50000000000000000        0.0000000000000000     
  0.90291568000000000       0.50000000000000000        0.0000000000000000     
  0.51392453000000005       0.10668648999999999        0.0000000000000000     
  0.59792566999999996       0.73122754000000001        0.0000000000000000     
  0.74510058999999995       0.41124730999999998        0.0000000000000000     
  0.73212551999999997       0.90191560000000004        0.0000000000000000     
   9.7784830000000003E-002  0.26957329000000002        0.0000000000000000     
  0.26711221000000002        9.8671499999999995E-002   0.0000000000000000     
  0.90191560000000004       0.26787448000000003        0.0000000000000000     
  0.90118569000000004       0.73039821000000005        0.0000000000000000     
  0.73122947000000005        9.8017859999999998E-002   0.0000000000000000     
   9.8084400000000002E-002  0.73212551999999997        0.0000000000000000     
  0.26957329000000002       0.90221516999999996        0.0000000000000000     
  0.39283522999999998       0.25360379000000000        0.0000000000000000     
  0.74480864000000002       0.60495284999999999        0.0000000000000000     
  0.25505132000000003       0.60593640999999998        0.0000000000000000     
  0.52159297999999998       0.40671636000000000        0.0000000000000000     
  0.40768852000000000       0.47699891000000000        0.0000000000000000     
   9.1467049999999994E-002   9.1876959999999994E-002   0.0000000000000000     
  0.90842484999999995       0.90819225000000003        0.0000000000000000     
  0.90820104999999995        9.1566729999999999E-002   0.0000000000000000     
   9.1807449999999999E-002  0.90843574000000005        0.0000000000000000     
  0.27098960000000000       0.20527094000000001        0.0000000000000000     
  0.73457293999999995       0.79835387000000002        0.0000000000000000     
  0.79817773000000003       0.25713470999999999        0.0000000000000000     
  0.20747797000000001       0.72863946000000002        0.0000000000000000     
  0.20175195000000001       0.27583914999999998        0.0000000000000000     
  0.79603889000000005       0.72159035000000005        0.0000000000000000     
  0.71761666000000002       0.19748431999999999        0.0000000000000000     
  0.28462607000000001       0.80251899999999998        0.0000000000000000     
  0.69134598999999997       0.49261972999999998        0.0000000000000000     
  0.44720578999999999       0.58582935999999997        0.0000000000000000     
  0.24242269999999999       0.37228174000000003        0.0000000000000000     
  0.38265623999999998       0.93072131999999996        0.0000000000000000     
  0.60971754000000000       0.91988369000000003        0.0000000000000000     
   7.9163609999999995E-002  0.60979116000000000        0.0000000000000000     
  0.92010649000000000       0.61081183999999999        0.0000000000000000     
  0.61954008999999999        7.1530830000000004E-002   0.0000000000000000     
  0.91882012999999996       0.38917363999999999        0.0000000000000000     
  0.39086346000000000        8.0652249999999995E-002   0.0000000000000000     
   7.9183480000000001E-002  0.38966213000000000        0.0000000000000000     
  0.59114111999999996       0.49294315000000000        0.0000000000000000     
  0.63337980999999999       0.64485914000000000        0.0000000000000000     
  0.50012352000000004       0.29676539000000002        0.0000000000000000     
  0.82552601000000003       0.92753492000000004        0.0000000000000000     
  0.92774772999999999       0.82498556999999995        0.0000000000000000     
   7.1970870000000006E-002  0.17510291000000000        0.0000000000000000     
  0.17422821999999999        7.2635640000000001E-002   0.0000000000000000     
  0.82510813000000005        7.2134840000000006E-002   0.0000000000000000     
  0.92754665000000003       0.17446275999999999        0.0000000000000000     
  0.17501022999999999       0.92789951999999998        0.0000000000000000     
   7.2464680000000004E-002  0.82554053000000005        0.0000000000000000     
  0.30731587999999999       0.50885354999999999        0.0000000000000000     
  0.59033407999999998       0.22171178999999999        0.0000000000000000     
  0.40109191999999999       0.78725542000000004        0.0000000000000000     
  0.35420917000000002       0.63754104000000000        0.0000000000000000     
  0.15983976999999999       0.56665573000000002        0.0000000000000000     
  0.84108459999999996       0.56757886999999996        0.0000000000000000     
  0.83902096000000004       0.43344338999999998        0.0000000000000000     
  0.43230028999999998       0.16004268999999999        0.0000000000000000     
  0.57536027999999995       0.83041363999999995        0.0000000000000000     
  0.15771898000000001       0.42747892999999998        0.0000000000000000     
  0.34021692999999997       0.34221559000000001        0.0000000000000000     
  0.56002271999999997       0.57501117999999996        0.0000000000000000     
  0.65344329000000001       0.78147597999999996        0.0000000000000000     
   0.0000000000000000        0.0000000000000000        0.0000000000000000     
   1.0000000000000000        0.0000000000000000        0.0000000000000000     
   1.0000000000000000        1.0000000000000000        0.0000000000000000     
   0.0000000000000000        1.0000000000000000        0.0000000000000000     
  0.11111111000000000        0.0000000000000000        0.0000000000000000     
  0.22222222000000000        0.0000000000000000        0.0000000000000000     
  0.33333332999999998        0.0000000000000000        0.0000000000000000     
  0.44444444000000000        0.0000000000000000        0.0000000000000000     
  0.55555555999999995        0.0000000000000000        0.0000000000000000     
  0.66666667000000002        0.0000000000000000        0.0000000000000000     
  0.77777777999999997        0.0000000000000000        0.0000000000000000     
  0.88888889000000004        0.0000000000000000        0.0000000000000000     
   1.0000000000000000       0.11111111000000000        0.0000000000000000     
   1.0000000000000000       0.22222222000000000        0.0000000000000000     
   1.0000000000000000       0.33333332999999998        0.0000000000000000     
   1.0000000000000000       0.44444444000000000        0.0000000000000000     
   1.0000000000000000       0.55555555999999995        0.0000000000000000     
   1.0000000000000000       0.66666667000000002        0.0000000000000000     
   1.0000000000000000       0.77777777999999997        0.0000000000000000     
   1.0000000000000000       0.88888889000000004        0.0000000000000000     
  0.88888889000000004        1.0000000000000000        0.0000000000000000     
  0.77777777999999997        1.0000000000000000        0.0000000000000000     
  0.66666667000000002        1.0000000000000000        0.0000000000000000     
  0.55555555999999995        1.0000000000000000        0.0000000000000000     
  0.44444444000000000        1.0000000000000000        0.0000000000000000     
  0.33333332999999998        1.0000000000000000        0.0000000000000000     
  0.22222222000000000        1.0000000000000000        0.0000000000000000     
  0.11111111000000000        1.0000000000000000        0.0000000000000000     
   0.0000000000000000       0.11111111000000000        0.0000000000000000     
   0.0000000000000000       0.22222222000000000        0.0000000000000000     
[...]
 CELL_DATA         354
 SCALARS V float
 LOOKUP_TABLE default
    0.30853584263123040587E-01
    0.40784733078348123225E-01
    0.22328130404159086259E-01
    0.18623947382166817360E-01
    0.33611280343661766035E-01
    0.36269210718407614291E-01
    0.43316821597674436128E-01
    0.39492294698444063705E-01
    0.46982781800474680833E-01
    0.50857453545863337552E-01
    0.58528263823296483581E-01
    0.54341037775954649514E-01
    0.60168841848237071546E-01
    0.59184130196752740560E-01
    0.56939709676801952831E-01
    0.58296156714341358651E-01
    0.54236631916222181882E-01
    0.50201145029464551428E-01
    0.43971587362041000824E-01
    0.46852952222117896786E-01
    0.42664179307996673296E-01
    0.43882661222595861772E-01
    0.47127166194684946832E-01
    0.45333565244717891063E-01
    0.47494153042015069266E-01
    0.46475231204697223242E-01
    0.43926879789927507358E-01
    0.45356840911922970128E-01
    0.41823022509276032432E-01
    0.38796504043859862676E-01
    0.33566117963779229516E-01
    0.36224869014030075531E-01
    0.30997136010475066781E-01
    0.28284015445184065851E-01
    0.24230176280393093263E-01
    0.26042997862500881501E-01
    0.23246776324836466998E-01
    0.23875161724521355017E-01
    0.25945056679143783940E-01
    0.24752880369978365327E-01
    0.26559807567137272422E-01
    0.26678897198976352784E-01
    0.27203037347739097290E-01
    0.26855255246094788396E-01
    0.26795991236323209173E-01
    0.25511547996128074861E-01
    0.24147965167538927578E-01
    0.24720591411130209830E-01
    0.23137228556827815762E-01
    0.21676255531553684924E-01
    0.19678821781418005810E-01
    0.20545454506898663122E-01
    0.31870675232600099991E-01
    0.32403869663483859942E-01
    0.34302434947039509017E-01
    0.33193118312663846825E-01
    0.34495657873762769485E-01
    0.33809861709490428294E-01
    0.32619671466215277578E-01
    0.33222576111672327825E-01
    0.31451356380771823551E-01
    0.29594084024470439231E-01
    0.26408545475457907703E-01
    0.28031405339732813620E-01
    0.24718688734015364927E-01
    0.22793184833214890500E-01
    0.19991740121454805446E-01
    0.21233219882192327227E-01
    0.70507411673847220079E-01
    0.63446160848195293225E-01
    0.59156957952004832202E-01
    0.66782805750169621506E-01
    0.61185948061456787994E-01
    0.61161262180987732706E-01
    0.54716630729320189785E-01
    0.51449803624296963633E-01
    0.53273496144973619959E-01
    0.58823717351058291136E-01
    0.42558448753647448726E-01
    0.45879339993009429777E-01
    0.38695158042897317974E-01
    0.40885198658018907791E-01
    0.46120678449426424916E-01
    0.39850355662700176484E-01
    0.68634769261457964640E-01
    0.79854818149459161347E-01
    0.87679587199940914322E-01
    0.72591480204193592485E-01
    0.70346477774783741643E-01
    0.75330608000819060388E-01
    0.83577751355405488498E-01
    0.40015586939378414155E-01
    0.39019728049780273704E-01
    0.34945290211763534172E-01
    0.34191851684792246013E-01
    0.36502699103037328232E-01
    0.41059811835067315522E-01
    0.51458083121245438984E-01
    0.61398592071363722322E-01
    0.53533839858893608743E-01
    0.59897931469125517689E-01
    0.51207555292145393033E-01
    0.56118727063653166265E-01
    0.72959809684584903122E-01
    0.73609778577787027265E-01
    0.81468806067387516956E-01
    0.81417756668549584598E-01
    0.71550968653443056122E-01
    0.43184424831541799727E-01
    0.40757249432436977454E-01
    0.34326635628593109295E-01
    0.40472775282944260800E-01
    0.36807573542301963432E-01
    0.36418674069294970641E-01
    0.50219199687194196469E-01
    0.39506740598198711312E-01
    0.42760530692676976261E-01
    0.47432339543897319989E-01
    0.47437678969574390009E-01
    0.40126663495078124244E-01
    0.42724944192104867546E-01
    0.30021347717048028902E-01
    0.32703640896657094894E-01
    0.27827515198564495291E-01
    0.33172879290741530411E-01
    0.34789072219888278470E-01
    0.28187966990126857303E-01
    0.29629616773771454141E-01
    0.40238150348736193007E-01
    0.45012618095916431815E-01
    0.38115720627033854162E-01
    0.47235956503609455304E-01
    0.44599620510425881659E-01
    0.38204795619182260746E-01
    0.40814514314629811442E-01
    0.54908193470232430355E-01
    0.59128426110308329733E-01
    0.51015481610995429274E-01
    0.60725745816225543128E-01
    0.63678443710883270157E-01
    0.53926657864605542780E-01
    0.51784990120730761687E-01
    0.26891217424727387186E-01
    0.26080626682674475092E-01
    0.23386473480202504133E-01
    0.29111496503826887056E-01
    0.28662644506093144098E-01
    0.24101667518132745271E-01
    0.24553066033799229168E-01
    0.63365544423906905447E-01
    0.70486890450818184828E-01
    0.74955180716262156948E-01
    0.66444896797809863132E-01
    0.77825230455329436063E-01
    0.65754087665512633842E-01
    0.54582004862942706813E-01
    0.60825778603809360634E-01
    0.62783347545468298767E-01
    0.54009456953803068602E-01
    0.58086201543626633792E-01
    0.45736175208169568829E-01
    0.54870585491671911016E-01
    0.51826303549828492412E-01
    0.50213027892332298685E-01
    0.47166307086600335607E-01
    0.31158726406240868506E-01
    0.34004002698356454448E-01
    0.31111122894156510721E-01
    0.33750578961006624801E-01
    0.35343147774468577915E-01
    0.53141560996323507216E-01
    0.62603758287138905336E-01
    0.55730847574409728140E-01
    0.57159208913691417209E-01
    0.62462858150628228215E-01
    0.40416068775086189113E-01
    0.44519803813281771943E-01
    0.45877129214106346367E-01
    0.39329219697209275020E-01
    0.42038541707212100096E-01
    0.64333298690684076471E-01
    0.56458543354407128567E-01
    0.62686380498946994710E-01
    0.54822765507993129197E-01
    0.58123620684408905390E-01
    0.38267849674479326172E-01
    0.45494321799119635807E-01
    0.40627890367160288121E-01
    0.40860382690502738967E-01
    0.44725025168706092349E-01
    0.70280167883986610633E-01
    0.66345414845496983314E-01
    0.71859697547539957974E-01
    0.66946695799337582744E-01
    0.77232435457932471778E-01
    0.30595027222651380305E-01
    0.36734002363339554598E-01
    0.32988265818030507170E-01
    0.32128629578346043494E-01
    0.35311089161502232092E-01
    0.30353100417235094610E-01
    0.28171740389741798533E-01
    0.30697588551312066790E-01
    0.28400815144863342937E-01
    0.32494869721266257667E-01
    0.86757043090389660001E-01
    0.73172765455846694449E-01
    0.79859481216329353259E-01
    0.70993284166698616966E-01
    0.73442719351380886250E-01
    0.45560890286457780829E-01
    0.45081619071969211698E-01
    0.50751128695080319209E-01
    0.49253548029986840562E-01
    0.52818885570964604903E-01
    0.59133529556138889061E-01
    0.53198304913362290391E-01
    0.53236353800432449634E-01
    0.59201619802339851273E-01
    0.87322286025812365096E-01
    0.91125254728018245665E-01
    0.91508046318028959942E-01
    0.47684881789571142985E-01
    0.38873484721263631969E-01
    0.43815562375995778521E-01
    0.28178452819017468095E-01
    0.29528424380121019027E-01
    0.33016231150078095835E-01
    0.32552723382566282895E-01
    0.32898321023267056151E-01
    0.35702651937449571273E-01
    0.36270840949139855625E-01
    0.38570757056429427756E-01
    0.43137847338327990621E-01
    0.48318760727618287332E-01
    0.47226328615466744987E-01
    0.51604831875331977353E-01
    0.64759563286988355846E-01
    0.61008938839533129184E-01
    0.76018793947632889996E-01
    0.66768259687367978450E-01
    0.45915449665532022394E-01
    0.38337287039267281541E-01
    0.39740935340474181636E-01
    0.66088475305342994637E-01
    0.60986330510004835292E-01
    0.32038077455331347154E-01
    0.28890058756909836601E-01
    0.27382603860201578522E-01
    0.42420000933067962545E-01
    0.37086560263508969171E-01
    0.36590705973975498622E-01
    0.50028881624261029026E-01
    0.51893903052858375569E-01
    0.43026730290219264430E-01
    0.58373579300275139914E-01
    0.51198939008608251866E-01
    0.50063380815557459447E-01
    0.36454857117377385822E-01
    0.37053373910067285979E-01
    0.30961299174376025189E-01
    0.65583340756994401577E-01
    0.62005040850038301015E-01
    0.55363456328096090353E-01
    0.29751116708175755210E-01
    0.29156116375444920963E-01
    0.25102598672623755577E-01
    0.28420405092074527836E-01
    0.26282793009241217641E-01
    0.23994136508154760568E-01
    0.59634435318759122790E-01
    0.76496446749029112233E-01
    0.67654378445274526710E-01
    0.64754719593741252859E-01
    0.43961708526725783164E-01
    0.57044568219921779062E-01
    0.50043425187803559917E-01
    0.48805599629497709024E-01
    0.36315562151818081560E-01
    0.45855814740458578083E-01
    0.42862765069483922675E-01
    0.38958117066707209641E-01
    0.69539746296620214006E-01
    0.73368083113986737320E-01
    0.83039131486749948041E-01
    0.57268048761221879150E-01
    0.55260300479357885028E-01
    0.34982248372089047583E-01
    0.37076642104755051788E-01
    0.25636420944946506500E-01
    0.26799830838453501253E-01
    0.48734818431819655615E-01
    0.47076304410078914642E-01
    0.21797909415288925505E-01
    0.22165666930648919575E-01
    0.49551887515786520455E-01
    0.36925683369828057878E-01
    0.36693886805621751812E-01
    0.67700948397229329667E-01
    0.31647132144220838090E-01
    0.48663888531736351761E-01
    0.78427747182529455872E-01
    0.33404730912314051228E-01
    0.66596258038553762804E-01
    0.48394278281190097890E-01
    0.55724048376287471651E-01
    0.45337865301859202327E-01
    0.55867018589313865995E-01
    0.31729012214255628010E-01
    0.33945297806490276615E-01
    0.43712742990717347313E-01
    0.52899571143238212356E-01
    0.61583311413631436348E-01
    0.38770627103358219767E-01
    0.62636722416943568792E-01
    0.53674638855370715440E-01
    0.87599075405893137014E-01
    0.36423289561662422487E-01
    0.30331513941959126202E-01
    0.28815016564268026988E-01
    0.39504674243582414694E-01
    0.38383619866507845408E-01
    0.21815470842458863088E-01
    0.20954393256975931831E-01
    0.17673918241069081631E-01
    0.17948578222069890009E-01
    0.36352395607045569215E-01
    0.43088676062543532219E-01
    0.49508821261425056681E-01
    0.54383329109283978786E-01
    0.54958935161591219998E-01
    0.51970548138276458083E-01
    0.45993422840664224815E-01
    0.41753503458321752917E-01
    0.43614480932830143600E-01
    0.42746378170200771685E-01
    0.39907685542563964276E-01
    0.35497980778712842631E-01
    0.30725557186148874655E-01
    0.25986726235556339981E-01
    0.22787961763539695687E-01
    0.24284919563273339727E-01
    0.24886112739132982413E-01
    0.24801611787487763683E-01
    0.23628845803130672093E-01
    0.22048314757517086665E-01
    0.19880162822192903871E-01
    0.30686985118778414144E-01
    0.31727413496577788754E-01
    0.31228888346261297199E-01
    0.29696710793477423818E-01
    0.27089396957286675238E-01
    0.24101266834176682252E-01
    0.20899725446096570347E-01
