# vtk DataFile Version 3.0
LAPLACIEN  2D
ASCII
DATASET UNSTRUCTURED_GRID
 POINTS         391  float
  0.50371505999999999       0.50367786999999997        0.0000000000000000     
  0.29013556000000001       0.29014535000000002        0.0000000000000000     
  0.70165584999999997       0.71206597999999999        0.0000000000000000     
  0.70304188999999995       0.30176619999999998        0.0000000000000000     
  0.30920671999999999       0.71149227999999998        0.0000000000000000     
  0.79044983999999996       0.49884783999999999        0.0000000000000000     
  0.49102621000000002       0.20968644000000000        0.0000000000000000     
  0.49912957000000002       0.77208717000000004        0.0000000000000000     
  0.21724072999999999       0.48989389000000000        0.0000000000000000     
  0.83255933999999998       0.83046598000000005        0.0000000000000000     
  0.16646774000000000       0.17015694000000001        0.0000000000000000     
  0.83054514999999995       0.16736480000000001        0.0000000000000000     
  0.16953130999999999       0.83265739000000005        0.0000000000000000     
  0.42166445000000002       0.36345201999999999        0.0000000000000000     
  0.64462200999999997       0.56347807999999999        0.0000000000000000     
  0.35324633999999999       0.56311191000000005        0.0000000000000000     
  0.65456411000000003       0.84856860999999995        0.0000000000000000     
  0.35141477999999998       0.15563974000000000        0.0000000000000000     
  0.15290967000000000       0.35206625000000003        0.0000000000000000     
  0.82942241000000005       0.34936866000000000        0.0000000000000000     
  0.84390527000000004       0.64441694999999999        0.0000000000000000     
  0.63699174999999997       0.14284276000000001        0.0000000000000000     
  0.15620682999999999       0.64648446999999998        0.0000000000000000     
  0.36426062999999997       0.85756310999999996        0.0000000000000000     
  0.63489340999999999       0.40519052000000000        0.0000000000000000     
  0.52518872999999999       0.65957078000000002        0.0000000000000000     
  0.32158959999999998       0.42298103999999997        0.0000000000000000     
  0.58861710000000000       0.31711036999999997        0.0000000000000000     
  0.42078418000000001       0.69497151999999995        0.0000000000000000     
  0.48608786999999998       0.89334152000000000        0.0000000000000000     
   9.7084320000000002E-002  0.50000000000000000        0.0000000000000000     
  0.90291568000000000       0.50000000000000000        0.0000000000000000     
  0.51392453000000005       0.10668648999999999        0.0000000000000000     
  0.59792566999999996       0.73122754000000001        0.0000000000000000     
  0.74510058999999995       0.41124730999999998        0.0000000000000000     
  0.73212551999999997       0.90191560000000004        0.0000000000000000     
   9.7784830000000003E-002  0.26957329000000002        0.0000000000000000     
  0.26711221000000002        9.8671499999999995E-002   0.0000000000000000     
  0.90191560000000004       0.26787448000000003        0.0000000000000000     
  0.90118569000000004       0.73039821000000005        0.0000000000000000     
  0.73122947000000005        9.8017859999999998E-002   0.0000000000000000     
   9.8084400000000002E-002  0.73212551999999997        0.0000000000000000     
  0.26957329000000002       0.90221516999999996        0.0000000000000000     
  0.39283522999999998       0.25360379000000000        0.0000000000000000     
  0.74480864000000002       0.60495284999999999        0.0000000000000000     
  0.25505132000000003       0.60593640999999998        0.0000000000000000     
  0.52159297999999998       0.40671636000000000        0.0000000000000000     
  0.40768852000000000       0.47699891000000000        0.0000000000000000     
   9.1467049999999994E-002   9.1876959999999994E-002   0.0000000000000000     
  0.90842484999999995       0.90819225000000003        0.0000000000000000     
  0.90820104999999995        9.1566729999999999E-002   0.0000000000000000     
   9.1807449999999999E-002  0.90843574000000005        0.0000000000000000     
  0.27098960000000000       0.20527094000000001        0.0000000000000000     
  0.73457293999999995       0.79835387000000002        0.0000000000000000     
  0.79817773000000003       0.25713470999999999        0.0000000000000000     
  0.20747797000000001       0.72863946000000002        0.0000000000000000     
  0.20175195000000001       0.27583914999999998        0.0000000000000000     
  0.79603889000000005       0.72159035000000005        0.0000000000000000     
  0.71761666000000002       0.19748431999999999        0.0000000000000000     
  0.28462607000000001       0.80251899999999998        0.0000000000000000     
  0.69134598999999997       0.49261972999999998        0.0000000000000000     
  0.44720578999999999       0.58582935999999997        0.0000000000000000     
  0.24242269999999999       0.37228174000000003        0.0000000000000000     
  0.38265623999999998       0.93072131999999996        0.0000000000000000     
  0.60971754000000000       0.91988369000000003        0.0000000000000000     
   7.9163609999999995E-002  0.60979116000000000        0.0000000000000000     
  0.92010649000000000       0.61081183999999999        0.0000000000000000     
  0.61954008999999999        7.1530830000000004E-002   0.0000000000000000     
  0.91882012999999996       0.38917363999999999        0.0000000000000000     
  0.39086346000000000        8.0652249999999995E-002   0.0000000000000000     
   7.9183480000000001E-002  0.38966213000000000        0.0000000000000000     
  0.59114111999999996       0.49294315000000000        0.0000000000000000     
  0.63337980999999999       0.64485914000000000        0.0000000000000000     
  0.50012352000000004       0.29676539000000002        0.0000000000000000     
  0.82552601000000003       0.92753492000000004        0.0000000000000000     
  0.92774772999999999       0.82498556999999995        0.0000000000000000     
   7.1970870000000006E-002  0.17510291000000000        0.0000000000000000     
  0.17422821999999999        7.2635640000000001E-002   0.0000000000000000     
  0.82510813000000005        7.2134840000000006E-002   0.0000000000000000     
  0.92754665000000003       0.17446275999999999        0.0000000000000000     
  0.17501022999999999       0.92789951999999998        0.0000000000000000     
   7.2464680000000004E-002  0.82554053000000005        0.0000000000000000     
  0.30731587999999999       0.50885354999999999        0.0000000000000000     
  0.59033407999999998       0.22171178999999999        0.0000000000000000     
  0.40109191999999999       0.78725542000000004        0.0000000000000000     
  0.35420917000000002       0.63754104000000000        0.0000000000000000     
  0.15983976999999999       0.56665573000000002        0.0000000000000000     
  0.84108459999999996       0.56757886999999996        0.0000000000000000     
  0.83902096000000004       0.43344338999999998        0.0000000000000000     
  0.43230028999999998       0.16004268999999999        0.0000000000000000     
  0.57536027999999995       0.83041363999999995        0.0000000000000000     
  0.15771898000000001       0.42747892999999998        0.0000000000000000     
  0.34021692999999997       0.34221559000000001        0.0000000000000000     
  0.56002271999999997       0.57501117999999996        0.0000000000000000     
  0.65344329000000001       0.78147597999999996        0.0000000000000000     
   0.0000000000000000        0.0000000000000000        0.0000000000000000     
   1.0000000000000000        0.0000000000000000        0.0000000000000000     
   1.0000000000000000        1.0000000000000000        0.0000000000000000     
   0.0000000000000000        1.0000000000000000        0.0000000000000000     
  0.11111111000000000        0.0000000000000000        0.0000000000000000     
  0.22222222000000000        0.0000000000000000        0.0000000000000000     
  0.33333332999999998        0.0000000000000000        0.0000000000000000     
  0.44444444000000000        0.0000000000000000        0.0000000000000000     
  0.55555555999999995        0.0000000000000000        0.0000000000000000     
  0.66666667000000002        0.0000000000000000        0.0000000000000000     
  0.77777777999999997        0.0000000000000000        0.0000000000000000     
  0.88888889000000004        0.0000000000000000        0.0000000000000000     
   1.0000000000000000       0.11111111000000000        0.0000000000000000     
   1.0000000000000000       0.22222222000000000        0.0000000000000000     
   1.0000000000000000       0.33333332999999998        0.0000000000000000     
   1.0000000000000000       0.44444444000000000        0.0000000000000000     
   1.0000000000000000       0.55555555999999995        0.0000000000000000     
   1.0000000000000000       0.66666667000000002        0.0000000000000000     
   1.0000000000000000       0.77777777999999997        0.0000000000000000     
   1.0000000000000000       0.88888889000000004        0.0000000000000000     
  0.88888889000000004        1.0000000000000000        0.0000000000000000     
  0.77777777999999997        1.0000000000000000        0.0000000000000000     
  0.66666667000000002        1.0000000000000000        0.0000000000000000     
  0.55555555999999995        1.0000000000000000        0.0000000000000000     
  0.44444444000000000        1.0000000000000000        0.0000000000000000     
  0.33333332999999998        1.0000000000000000        0.0000000000000000     
  0.22222222000000000        1.0000000000000000        0.0000000000000000     
  0.11111111000000000        1.0000000000000000        0.0000000000000000     
   0.0000000000000000       0.11111111000000000        0.0000000000000000     
   0.0000000000000000       0.22222222000000000        0.0000000000000000     
[...]
 CELL_DATA         354
 SCALARS V float
 LOOKUP_TABLE default
    0.30853757145808576035E-01
    0.40784964080496644012E-01
    0.22328259681713157753E-01
    0.18624059296792259272E-01
    0.33611307819398063279E-01
    0.36269290653268462798E-01
    0.43317051979730847311E-01
    0.39492434847535021203E-01
    0.46983019627569858057E-01
    0.50857662721710925058E-01
    0.58528605432340619075E-01
    0.54341344163452189042E-01
    0.60169090152309520625E-01
    0.59184417472589165299E-01
    0.56940025632277638246E-01
    0.58296477239677658988E-01
    0.54236910655260789360E-01
    0.50201336497254799018E-01
    0.43971656599477021432E-01
    0.46853080436676457221E-01
    0.42664331699710698886E-01
    0.43882822618536071468E-01
    0.47127402441752327955E-01
    0.45333772318735053586E-01
    0.47494479761998192879E-01
    0.46475528605318928987E-01
    0.43927098557981464344E-01
    0.45357066368993732841E-01
    0.41823260559978120421E-01
    0.38796703254051330412E-01
    0.33566285710873736137E-01
    0.36225024783945555806E-01
    0.30997309353892218281E-01
    0.28284130014347735882E-01
    0.24230211285958157957E-01
    0.26043064465052521983E-01
    0.23246876734044148033E-01
    0.23875258354251704257E-01
    0.25945208033038555384E-01
    0.24753006917287729421E-01
    0.26560007563341963416E-01
    0.26679078818134485673E-01
    0.27203243267798424276E-01
    0.26855433887218782552E-01
    0.26796164140613157323E-01
    0.25511700705235090814E-01
    0.24148129612417780498E-01
    0.24720756276115897487E-01
    0.23137370132930469568E-01
    0.21676364900737567915E-01
    0.19678892192457757976E-01
    0.20545531680203916319E-01
    0.31870822399729013819E-01
    0.32404002864342570933E-01
    0.34302623294928502595E-01
    0.33193288001442902702E-01
    0.34495908663599916810E-01
    0.33810088141825053731E-01
    0.32619856353642381896E-01
    0.33222757562023162714E-01
    0.31451551127271222541E-01
    0.29594250604232687218E-01
    0.26408713634531913450E-01
    0.28031557565360149670E-01
    0.24718836132223330482E-01
    0.22793287330616265884E-01
    0.19991788083909903251E-01
    0.21233286761067650394E-01
    0.70507448660758878511E-01
    0.63446109571729303322E-01
    0.59156747766755404805E-01
    0.66782807194821380836E-01
    0.61185775061381543483E-01
    0.61161356072852168797E-01
    0.54716649222551906606E-01
    0.51449700391489099072E-01
    0.53273358073286411485E-01
    0.58823637684367109657E-01
    0.42558534227435038111E-01
    0.45879434600591614823E-01
    0.38695150403056620403E-01
    0.40885240865224943552E-01
    0.46120664644333481119E-01
    0.39850496405333654670E-01
    0.68634700520466107587E-01
    0.79854409756025340750E-01
    0.87678250440763647044E-01
    0.72591414456619332563E-01
    0.70346377837284423951E-01
    0.75330628506244279308E-01
    0.83577051714444711150E-01
    0.40015460886595605183E-01
    0.39019670344787614480E-01
    0.34945276340963477013E-01
    0.34191859938362045845E-01
    0.36502688441875541514E-01
    0.41059661317371175249E-01
    0.51458007567688215933E-01
    0.61398596316912579240E-01
    0.53533840223374894174E-01
    0.59897814385887863942E-01
    0.51207688538027831826E-01
    0.56118634508612777467E-01
    0.72959590737421753381E-01
    0.73609530932390573876E-01
    0.81468623532426773237E-01
    0.81417620972314835859E-01
    0.71550960608035313326E-01
    0.43184397375867746016E-01
    0.40757283237096132711E-01
    0.34326518314907121521E-01
    0.40472799078372069526E-01
    0.36807519616564560172E-01
    0.36418693355266935907E-01
    0.50219049700396367619E-01
    0.39506705186947377317E-01
    0.42760521770869933111E-01
    0.47432376315632122921E-01
    0.47437560253504762464E-01
    0.40126807707484529741E-01
    0.42725016834182061309E-01
    0.30021377249768117779E-01
    0.32703684693212331513E-01
    0.27827548321008158116E-01
    0.33172807841341217516E-01
    0.34789021965613738108E-01
    0.28188087017957136338E-01
    0.29629708008119929469E-01
    0.40238211982879482087E-01
    0.45012656490972004220E-01
    0.38115763195224652837E-01
    0.47235838248941064421E-01
    0.44599542422537462316E-01
    0.38204927109067518542E-01
    0.40814632573080808498E-01
    0.54908179203927751089E-01
    0.59128443264436669757E-01
    0.51015507813874115539E-01
    0.60725558748447754087E-01
    0.63678279697403444848E-01
    0.53926804033078951095E-01
    0.51785172598179905756E-01
    0.26891269314999452500E-01
    0.26080686945346542860E-01
    0.23386507232953546165E-01
    0.29111450500953813675E-01
    0.28662614181863124707E-01
    0.24101763628585320953E-01
    0.24553164129001915639E-01
    0.63365553257934054132E-01
    0.70486851192204158512E-01
    0.74954958766975027240E-01
    0.66444803317838030399E-01
    0.77824990879224481555E-01
    0.65754144982172857414E-01
    0.54581786743651522498E-01
    0.60825713743715412174E-01
    0.62783396995016504949E-01
    0.54009298096308569481E-01
    0.58086108779668903235E-01
    0.45735983824638740125E-01
    0.54870741046125395823E-01
    0.51826366466854567605E-01
    0.50212976568583277126E-01
    0.47166257664620812873E-01
    0.31158605456940092343E-01
    0.34003945808892127589E-01
    0.31110975303942141335E-01
    0.33750605830957382258E-01
    0.35343151393497258816E-01
    0.53141316438639236985E-01
    0.62603716292609079552E-01
    0.55730776705011475514E-01
    0.57158975103155852671E-01
    0.62462826468259631529E-01
    0.40415928657583283234E-01
    0.44519820241231577995E-01
    0.45877215920105761382E-01
    0.39329066230940380733E-01
    0.42038546223239478539E-01
    0.64333338895862415829E-01
    0.56458380500734116347E-01
    0.62686325316911456484E-01
    0.54822598586076930205E-01
    0.58123636644100064308E-01
    0.38267697280529519577E-01
    0.45494373893631395722E-01
    0.40627892060070613933E-01
    0.40860247990189654810E-01
    0.44725051988990988105E-01
    0.70280156842484217683E-01
    0.66345170737837938502E-01
    0.71859652605377341561E-01
    0.66946716344161327772E-01
    0.77232170795294791121E-01
    0.30594913327998848190E-01
    0.36734076063680010105E-01
    0.32988301628993674242E-01
    0.32128519924187463885E-01
    0.35311116028173827885E-01
    0.30353230182918689017E-01
    0.28171671086090862429E-01
    0.30697645540235234118E-01
    0.28400864935364814740E-01
    0.32494949150203678023E-01
    0.86756184331915356389E-01
    0.73172760632143188375E-01
    0.79859153972803312294E-01
    0.70993175168270972186E-01
    0.73442629497707495601E-01
    0.45560853264949435770E-01
    0.45081651818924588226E-01
    0.50751135862437166124E-01
    0.49253518344689398156E-01
    0.52818849188715745469E-01
    0.59133579771829009042E-01
    0.53198133745824237317E-01
    0.53236330240163581839E-01
    0.59201534710899249292E-01
    0.87321324212843290380E-01
    0.91123745983677312266E-01
    0.91506244975264341979E-01
    0.47684903970965170084E-01
    0.38873491270322982349E-01
    0.43815539239419262763E-01
    0.28178584148912624863E-01
    0.29528396712717452921E-01
    0.33016152113479094177E-01
    0.32552640009006005017E-01
    0.32898290105830362007E-01
    0.35702586838705870076E-01
    0.36270838002938197986E-01
    0.38570601160534644103E-01
    0.43137801955749274785E-01
    0.48318660859333235902E-01
    0.47226312023158710518E-01
    0.51604595504580512422E-01
    0.64759762429623113356E-01
    0.61008818787593968591E-01
    0.76018305842232097858E-01
    0.66768061483727381145E-01
    0.45915438777674594251E-01
    0.38337289571501925733E-01
    0.39741026926703899858E-01
    0.66088429535965567685E-01
    0.60986449911787352085E-01
    0.32038015906997126259E-01
    0.28889978875319095170E-01
    0.27382699282283110009E-01
    0.42419936715831406404E-01
    0.37086498320913929838E-01
    0.36590803391769108344E-01
    0.50028764724612463655E-01
    0.51893698542310601196E-01
    0.43026875697566073498E-01
    0.58373354776172628466E-01
    0.51198903414697578829E-01
    0.50063521373455280306E-01
    0.36454783599531921656E-01
    0.37053251998105850296E-01
    0.30961420400624981020E-01
    0.65583145964276848283E-01
    0.62004857313541272834E-01
    0.55363625613898709288E-01
    0.29751067476780131832E-01
    0.29156037206362558217E-01
    0.25102700784412575186E-01
    0.28420380869602114571E-01
    0.26282753859032049332E-01
    0.23994230796600846123E-01
    0.59634488704812076143E-01
    0.76496020937070627332E-01
    0.67654366945025135038E-01
    0.64754822391787078550E-01
    0.43961785492121763230E-01
    0.57044370452874686162E-01
    0.50043370675562012795E-01
    0.48805695808601473606E-01
    0.36315623722001491580E-01
    0.45855575484305667600E-01
    0.42862651601673198987E-01
    0.38958232116707389170E-01
    0.69539608053491019923E-01
    0.73368100897617277711E-01
    0.83038542859107056238E-01
    0.57268028526974643078E-01
    0.55260402775276981635E-01
    0.34982263713195495269E-01
    0.37076641678342216191E-01
    0.25636437607760055590E-01
    0.26799832347903042307E-01
    0.48734791357504025910E-01
    0.47076302073060627418E-01
    0.21797920123651046143E-01
    0.22165676653836681453E-01
    0.49551775639577994026E-01
    0.36925653895038768049E-01
    0.36693840461021885735E-01
    0.67700835220818877946E-01
    0.31647096887926239039E-01
    0.48663892463878255512E-01
    0.78427820631552930264E-01
    0.33404823514276399399E-01
    0.66596241466373981566E-01
    0.48394340412874534141E-01
    0.55723955260378106591E-01
    0.45338059082492165874E-01
    0.55866880233604518380E-01
    0.31728922679749714530E-01
    0.33945235646517787909E-01
    0.43712664583553127728E-01
    0.52899412211020749308E-01
    0.61583100057556031115E-01
    0.38770517228322545766E-01
    0.62636661555184922068E-01
    0.53674494293884107698E-01
    0.87598279477527990489E-01
    0.36423295415651826823E-01
    0.30331598991730414350E-01
    0.28815249702895329859E-01
    0.39504839367475785838E-01
    0.38383892605902712736E-01
    0.21815546410485744250E-01
    0.20954553903294211026E-01
    0.17674033932117371587E-01
    0.17948666900854164108E-01
    0.36352536505534764621E-01
    0.43088987302161652071E-01
    0.49509178959169987400E-01
    0.54383749038106596330E-01
    0.54959401628933569894E-01
    0.51970974674723620368E-01
    0.45993669608370743584E-01
    0.41753816891097861319E-01
    0.43614865926640676574E-01
    0.42746746676087285510E-01
    0.39908005649939341797E-01
    0.35498236836829913377E-01
    0.30725777614271563426E-01
    0.25986836743557284457E-01
    0.22788136005699656528E-01
    0.24285146282818879937E-01
    0.24886345497330365079E-01
    0.24801853091507449628E-01
    0.23629058152130233417E-01
    0.22048512161330344195E-01
    0.19880297659389867260E-01
    0.30687230665649111588E-01
    0.31727702126096594959E-01
    0.31229168047442551481E-01
    0.29696966540990167582E-01
    0.27089614387861834371E-01
    0.24101466385467784637E-01
    0.20899840502681687332E-01
