# vtk DataFile Version 3.0
LAPLACIEN  2D
ASCII
DATASET UNSTRUCTURED_GRID
 POINTS         391  float
  0.50371505999999999       0.50367786999999997        0.0000000000000000     
  0.29013556000000001       0.29014535000000002        0.0000000000000000     
  0.70165584999999997       0.71206597999999999        0.0000000000000000     
  0.70304188999999995       0.30176619999999998        0.0000000000000000     
  0.30920671999999999       0.71149227999999998        0.0000000000000000     
  0.79044983999999996       0.49884783999999999        0.0000000000000000     
  0.49102621000000002       0.20968644000000000        0.0000000000000000     
  0.49912957000000002       0.77208717000000004        0.0000000000000000     
  0.21724072999999999       0.48989389000000000        0.0000000000000000     
  0.83255933999999998       0.83046598000000005        0.0000000000000000     
  0.16646774000000000       0.17015694000000001        0.0000000000000000     
  0.83054514999999995       0.16736480000000001        0.0000000000000000     
  0.16953130999999999       0.83265739000000005        0.0000000000000000     
  0.42166445000000002       0.36345201999999999        0.0000000000000000     
  0.64462200999999997       0.56347807999999999        0.0000000000000000     
  0.35324633999999999       0.56311191000000005        0.0000000000000000     
  0.65456411000000003       0.84856860999999995        0.0000000000000000     
  0.35141477999999998       0.15563974000000000        0.0000000000000000     
  0.15290967000000000       0.35206625000000003        0.0000000000000000     
  0.82942241000000005       0.34936866000000000        0.0000000000000000     
  0.84390527000000004       0.64441694999999999        0.0000000000000000     
  0.63699174999999997       0.14284276000000001        0.0000000000000000     
  0.15620682999999999       0.64648446999999998        0.0000000000000000     
  0.36426062999999997       0.85756310999999996        0.0000000000000000     
  0.63489340999999999       0.40519052000000000        0.0000000000000000     
  0.52518872999999999       0.65957078000000002        0.0000000000000000     
  0.32158959999999998       0.42298103999999997        0.0000000000000000     
  0.58861710000000000       0.31711036999999997        0.0000000000000000     
  0.42078418000000001       0.69497151999999995        0.0000000000000000     
  0.48608786999999998       0.89334152000000000        0.0000000000000000     
   9.7084320000000002E-002  0.50000000000000000        0.0000000000000000     
  0.90291568000000000       0.50000000000000000        0.0000000000000000     
  0.51392453000000005       0.10668648999999999        0.0000000000000000     
  0.59792566999999996       0.73122754000000001        0.0000000000000000     
  0.74510058999999995       0.41124730999999998        0.0000000000000000     
  0.73212551999999997       0.90191560000000004        0.0000000000000000     
   9.7784830000000003E-002  0.26957329000000002        0.0000000000000000     
  0.26711221000000002        9.8671499999999995E-002   0.0000000000000000     
  0.90191560000000004       0.26787448000000003        0.0000000000000000     
  0.90118569000000004       0.73039821000000005        0.0000000000000000     
  0.73122947000000005        9.8017859999999998E-002   0.0000000000000000     
   9.8084400000000002E-002  0.73212551999999997        0.0000000000000000     
  0.26957329000000002       0.90221516999999996        0.0000000000000000     
  0.39283522999999998       0.25360379000000000        0.0000000000000000     
  0.74480864000000002       0.60495284999999999        0.0000000000000000     
  0.25505132000000003       0.60593640999999998        0.0000000000000000     
  0.52159297999999998       0.40671636000000000        0.0000000000000000     
  0.40768852000000000       0.47699891000000000        0.0000000000000000     
   9.1467049999999994E-002   9.1876959999999994E-002   0.0000000000000000     
  0.90842484999999995       0.90819225000000003        0.0000000000000000     
  0.90820104999999995        9.1566729999999999E-002   0.0000000000000000     
   9.1807449999999999E-002  0.90843574000000005        0.0000000000000000     
  0.27098960000000000       0.20527094000000001        0.0000000000000000     
  0.73457293999999995       0.79835387000000002        0.0000000000000000     
  0.79817773000000003       0.25713470999999999        0.0000000000000000     
  0.20747797000000001       0.72863946000000002        0.0000000000000000     
  0.20175195000000001       0.27583914999999998        0.0000000000000000     
  0.79603889000000005       0.72159035000000005        0.0000000000000000     
  0.71761666000000002       0.19748431999999999        0.0000000000000000     
  0.28462607000000001       0.80251899999999998        0.0000000000000000     
  0.69134598999999997       0.49261972999999998        0.0000000000000000     
  0.44720578999999999       0.58582935999999997        0.0000000000000000     
  0.24242269999999999       0.37228174000000003        0.0000000000000000     
  0.38265623999999998       0.93072131999999996        0.0000000000000000     
  0.60971754000000000       0.91988369000000003        0.0000000000000000     
   7.9163609999999995E-002  0.60979116000000000        0.0000000000000000     
  0.92010649000000000       0.61081183999999999        0.0000000000000000     
  0.61954008999999999        7.1530830000000004E-002   0.0000000000000000     
  0.91882012999999996       0.38917363999999999        0.0000000000000000     
  0.39086346000000000        8.0652249999999995E-002   0.0000000000000000     
   7.9183480000000001E-002  0.38966213000000000        0.0000000000000000     
  0.59114111999999996       0.49294315000000000        0.0000000000000000     
  0.63337980999999999       0.64485914000000000        0.0000000000000000     
  0.50012352000000004       0.29676539000000002        0.0000000000000000     
  0.82552601000000003       0.92753492000000004        0.0000000000000000     
  0.92774772999999999       0.82498556999999995        0.0000000000000000     
   7.1970870000000006E-002  0.17510291000000000        0.0000000000000000     
  0.17422821999999999        7.2635640000000001E-002   0.0000000000000000     
  0.82510813000000005        7.2134840000000006E-002   0.0000000000000000     
  0.92754665000000003       0.17446275999999999        0.0000000000000000     
  0.17501022999999999       0.92789951999999998        0.0000000000000000     
   7.2464680000000004E-002  0.82554053000000005        0.0000000000000000     
  0.30731587999999999       0.50885354999999999        0.0000000000000000     
  0.59033407999999998       0.22171178999999999        0.0000000000000000     
  0.40109191999999999       0.78725542000000004        0.0000000000000000     
  0.35420917000000002       0.63754104000000000        0.0000000000000000     
  0.15983976999999999       0.56665573000000002        0.0000000000000000     
  0.84108459999999996       0.56757886999999996        0.0000000000000000     
  0.83902096000000004       0.43344338999999998        0.0000000000000000     
  0.43230028999999998       0.16004268999999999        0.0000000000000000     
  0.57536027999999995       0.83041363999999995        0.0000000000000000     
  0.15771898000000001       0.42747892999999998        0.0000000000000000     
  0.34021692999999997       0.34221559000000001        0.0000000000000000     
  0.56002271999999997       0.57501117999999996        0.0000000000000000     
  0.65344329000000001       0.78147597999999996        0.0000000000000000     
   0.0000000000000000        0.0000000000000000        0.0000000000000000     
   1.0000000000000000        0.0000000000000000        0.0000000000000000     
   1.0000000000000000        1.0000000000000000        0.0000000000000000     
   0.0000000000000000        1.0000000000000000        0.0000000000000000     
  0.11111111000000000        0.0000000000000000        0.0000000000000000     
  0.22222222000000000        0.0000000000000000        0.0000000000000000     
  0.33333332999999998        0.0000000000000000        0.0000000000000000     
  0.44444444000000000        0.0000000000000000        0.0000000000000000     
  0.55555555999999995        0.0000000000000000        0.0000000000000000     
  0.66666667000000002        0.0000000000000000        0.0000000000000000     
  0.77777777999999997        0.0000000000000000        0.0000000000000000     
  0.88888889000000004        0.0000000000000000        0.0000000000000000     
   1.0000000000000000       0.11111111000000000        0.0000000000000000     
   1.0000000000000000       0.22222222000000000        0.0000000000000000     
   1.0000000000000000       0.33333332999999998        0.0000000000000000     
   1.0000000000000000       0.44444444000000000        0.0000000000000000     
   1.0000000000000000       0.55555555999999995        0.0000000000000000     
   1.0000000000000000       0.66666667000000002        0.0000000000000000     
   1.0000000000000000       0.77777777999999997        0.0000000000000000     
   1.0000000000000000       0.88888889000000004        0.0000000000000000     
  0.88888889000000004        1.0000000000000000        0.0000000000000000     
  0.77777777999999997        1.0000000000000000        0.0000000000000000     
  0.66666667000000002        1.0000000000000000        0.0000000000000000     
  0.55555555999999995        1.0000000000000000        0.0000000000000000     
  0.44444444000000000        1.0000000000000000        0.0000000000000000     
  0.33333332999999998        1.0000000000000000        0.0000000000000000     
  0.22222222000000000        1.0000000000000000        0.0000000000000000     
  0.11111111000000000        1.0000000000000000        0.0000000000000000     
   0.0000000000000000       0.11111111000000000        0.0000000000000000     
   0.0000000000000000       0.22222222000000000        0.0000000000000000     
[...]
 CELL_DATA         354
 SCALARS V float
 LOOKUP_TABLE default
    0.19962909327699671254E-02
    0.63707131986398858603E-02
    0.15182784943859352605E-02
    0.15506589178659459065E-02
    0.23042347054203896929E-02
    0.27431812770948010155E-02
    0.10050473778206142628E-01
    0.59971170274855465504E-02
    0.11495465490655146570E-01
    0.12410045203222058730E-01
    0.14418791267858058897E-01
    0.13560673913207921260E-01
    0.14685960982457267957E-01
    0.14839809039493744025E-01
    0.14545452215846903232E-01
    0.14818998265743260623E-01
    0.14071225567352536184E-01
    0.12932877637993125952E-01
    0.92476735964690318093E-02
    0.11788914140636319594E-01
    0.80241874111457184987E-02
    0.96752477016158917877E-02
    0.11307568192277359445E-01
    0.10356958009135639603E-01
    0.11426635179750999766E-01
    0.11107173754171275476E-01
    0.83068535808420336519E-02
    0.10331003916967698014E-01
    0.62046331466004377153E-02
    0.43752899617490251249E-02
    0.22071174774878146718E-02
    0.25201497078163668901E-02
    0.20271330110656076047E-02
    0.17979449113275061851E-02
    0.15720206267771875876E-02
    0.16772281750846791855E-02
    0.15409701261893584551E-02
    0.15450655686804687979E-02
    0.16417755055796784316E-02
    0.15701852393205861184E-02
    0.16495754832242534929E-02
    0.16637764199909498442E-02
    0.16931406716323442376E-02
    0.16711929680298786421E-02
    0.16869282655847491533E-02
    0.15842529220901847755E-02
    0.15252795409142925684E-02
    0.15440671017403397730E-02
    0.15087082527761638134E-02
    0.14826867369971833202E-02
    0.14869115741663102483E-02
    0.14554879285492920270E-02
    0.20668450720264753759E-02
    0.20856177218716068743E-02
    0.22552832869679644359E-02
    0.21263677410786178436E-02
    0.22492563051973880200E-02
    0.21900799391628054079E-02
    0.21058854916795885850E-02
    0.21564762231295409381E-02
    0.20303867715039504785E-02
    0.18648517259662153629E-02
    0.16369339743543247917E-02
    0.17671484510746507911E-02
    0.15774417366050809235E-02
    0.14892512918169100757E-02
    0.14106888406629062606E-02
    0.14359840464928151985E-02
    0.14551909065740130378E-01
    0.13654459173096300181E-01
    0.13170498791219002743E-01
    0.14045470349558296375E-01
    0.13474835285721579320E-01
    0.13644371120544472598E-01
    0.12282947866618976890E-01
    0.11179684939086630135E-01
    0.11523166764049823027E-01
    0.12900641107860020412E-01
    0.86299509912602274941E-02
    0.10148303228059676190E-01
    0.38292347194768001223E-02
    0.69880597433683005332E-02
    0.10497707762597997122E-01
    0.50536343124311690345E-02
    0.14079096531016556393E-01
    0.14562045854812936604E-01
    0.13038690548153455268E-01
    0.14504811128204314619E-01
    0.14324563180403638435E-01
    0.15068148690728085798E-01
    0.14161432392461113794E-01
    0.53577197532841463676E-02
    0.49119959782712337149E-02
    0.26869004467753908674E-02
    0.25260380442566109441E-02
    0.28691597163208347118E-02
    0.70891770681471896060E-02
    0.10870397104975783667E-01
    0.13466012928569278187E-01
    0.11805399222590294561E-01
    0.13025466573638160711E-01
    0.10952146039421576523E-01
    0.12205293600160935577E-01
    0.15193875855170305145E-01
    0.15125214989635326485E-01
    0.15460323688717900192E-01
    0.15566360911730877867E-01
    0.15008975060320658979E-01
    0.87463367986924320241E-02
    0.67536806424399803070E-02
    0.26092634509081421082E-02
    0.63772509397916447849E-02
    0.33329810217584488266E-02
    0.31345141086628267035E-02
    0.11352349048173386581E-01
    0.45827484025133249576E-02
    0.85101486084008057947E-02
    0.11144248783389643781E-01
    0.10833748802300237346E-01
    0.48222661057727416595E-02
    0.86045435652736881882E-02
    0.19876383010546147360E-02
    0.22721150082801143399E-02
    0.18343766467059825775E-02
    0.24141998231036396194E-02
    0.26137922784915329846E-02
    0.18274687066191118087E-02
    0.19543765111494680944E-02
    0.55084760176454935707E-02
    0.98565391595912144745E-02
    0.34027588282908071207E-02
    0.10474293149948948195E-01
    0.90889152868207992442E-02
    0.29218754320776345150E-02
    0.67031690388798257155E-02
    0.12190555506170064684E-01
    0.13576639242620864093E-01
    0.11830639345910685944E-01
    0.13163854979603917955E-01
    0.13842319226103403859E-01
    0.12602884448440113130E-01
    0.11585488429879046979E-01
    0.17104209871141476222E-02
    0.16434327129904934776E-02
    0.15059689603059375242E-02
    0.19478311225011447731E-02
    0.18827032699663983056E-02
    0.15267413007788394139E-02
    0.15516389857081714851E-02
    0.13631650476992942037E-01
    0.14483761812064472468E-01
    0.15024548254625451349E-01
    0.13930053429818936919E-01
    0.15492121812802770592E-01
    0.13964123154478310512E-01
    0.11753947306270096790E-01
    0.13098173340987961238E-01
    0.13750159022212412110E-01
    0.11623195660762600245E-01
    0.12884440523760603073E-01
    0.10273006346288075796E-01
    0.12574334188885774588E-01
    0.11907360348544147183E-01
    0.11142437479619798565E-01
    0.11051107611662513291E-01
    0.21853092449923361765E-02
    0.25979747869595585727E-02
    0.21956789743752804997E-02
    0.25052049995730914234E-02
    0.27302223495274790394E-02
    0.11734561312450590698E-01
    0.13812416791245583914E-01
    0.12488620870980937302E-01
    0.12696917655085713378E-01
    0.13722805155309663813E-01
    0.58111619346478370074E-02
    0.93634835639172450672E-02
    0.10438537518485880434E-01
    0.43900946301145124182E-02
    0.79416667187244133208E-02
    0.13559544396120257886E-01
    0.12115395405248330710E-01
    0.13122443306920889006E-01
    0.11732890092724624145E-01
    0.12581353104539351115E-01
    0.35273984782266186271E-02
    0.10087547667099112589E-01
    0.66426803184770431138E-02
    0.61614429408881534606E-02
    0.95856387262677165972E-02
    0.15029514247830427082E-01
    0.14700363384612114004E-01
    0.14861767150835852175E-01
    0.14930531779528417868E-01
    0.15808758793121605729E-01
    0.21359808646910761164E-02
    0.28992786221366325002E-02
    0.23535454254237008972E-02
    0.23161879874817126526E-02
    0.26978090389504954041E-02
    0.19587262823257409541E-02
    0.18515405669837551282E-02
    0.20557595631283741115E-02
    0.18182877950168718079E-02
    0.21946801268995265455E-02
    0.14158373185439441719E-01
    0.14692084983072390206E-01
    0.14785314007574268391E-01
    0.14497983691147350166E-01
    0.14845761798101837076E-01
    0.99726363456680618830E-02
    0.96729683579825816164E-02
    0.11159712155994296057E-01
    0.10698322981088487921E-01
    0.11519416365788584522E-01
    0.13060325587790333132E-01
    0.11536832327681427468E-01
    0.11725236667395617929E-01
    0.12839831891072021192E-01
    0.13593559466999624585E-01
    0.12152546397794030536E-01
    0.11748360221630236092E-01
    0.10962683408005720331E-01
    0.36868621833622684629E-02
    0.94827522806788088622E-02
    0.17947669480760934831E-02
    0.19323582050504552535E-02
    0.23221051170849412240E-02
    0.23200057875032067262E-02
    0.22952998617431982775E-02
    0.25959362430725213891E-02
    0.28955763502376660919E-02
    0.42816273065470469503E-02
    0.77451710035496825965E-02
    0.10134710522245696240E-01
    0.98510700007859407223E-02
    0.10751263004529647976E-01
    0.14839309541159192291E-01
    0.14294959691180816885E-01
    0.15754513119843313596E-01
    0.14490767007181949363E-01
    0.10442604122663829910E-01
    0.34879988218998233401E-02
    0.49553088325693713662E-02
    0.13779145496383199757E-01
    0.13379717745738812021E-01
    0.22839581643648910504E-02
    0.18976618764470023527E-02
    0.17527247973044485837E-02
    0.77136690140186849052E-02
    0.29426827542663206924E-02
    0.26380954727639699224E-02
    0.10899478996166269903E-01
    0.11914047930806526132E-01
    0.89175920604325359387E-02
    0.12623690519535862159E-01
    0.11499024204525889331E-01
    0.11462101226287949030E-01
    0.30437951435313267620E-02
    0.30048699653324219272E-02
    0.20738892483466910693E-02
    0.14243019393321849908E-01
    0.14740234040057691167E-01
    0.13567603140485435045E-01
    0.20187128614482332568E-02
    0.19431706119780653690E-02
    0.15971108935127389505E-02
    0.18738774354530170988E-02
    0.16786246500513572321E-02
    0.15211114334367096049E-02
    0.13536088335921174497E-01
    0.15440071424272543837E-01
    0.14339206215819926341E-01
    0.13972863961957683945E-01
    0.93227942628591707608E-02
    0.12440326494306687410E-01
    0.10742787343768659541E-01
    0.10799119799991830845E-01
    0.28501451326572741635E-02
    0.10297555213337979130E-01
    0.88528337819491122879E-02
    0.45459183747610359266E-02
    0.14510421172062809222E-01
    0.14833002421438819252E-01
    0.14515789553586809502E-01
    0.12976325345518829185E-01
    0.12531882430244167814E-01
    0.24509326824324424374E-02
    0.32567040557341009506E-02
    0.16559825130017273229E-02
    0.17491568225419340619E-02
    0.11608153889029939471E-01
    0.10799047256451782539E-01
    0.14096759808654225118E-02
    0.14271373067043465789E-02
    0.10625759320588991363E-01
    0.33960670219515265433E-02
    0.31196342487916526795E-02
    0.14029166798659660140E-01
    0.22107288318336925509E-02
    0.10724893332394239837E-01
    0.15760104818809267391E-01
    0.23259322728612142651E-02
    0.13915141039809232962E-01
    0.11383887802999859834E-01
    0.12414653187290757008E-01
    0.10501850410507201222E-01
    0.12133441907353574238E-01
    0.22476386995416018817E-02
    0.24994086001928297359E-02
    0.88306462981124159844E-02
    0.11102933352518714466E-01
    0.13864069596684928595E-01
    0.40924128861426923437E-02
    0.13824649115890281365E-01
    0.11645874704067044753E-01
    0.13172163107054745898E-01
    0.29254843192799149035E-02
    0.19757959642579610467E-02
    0.17659830458930535126E-02
    0.48516187991751360403E-02
    0.41059506200628575340E-02
    0.14937880918117828026E-02
    0.14677142937646291132E-02
    0.15959778006189963891E-02
    0.15112515034510489928E-02
    0.26708110215745320230E-02
    0.69808222101015848099E-02
    0.77297066866208194794E-02
    0.86189432222577612441E-02
    0.88709413814119543462E-02
    0.85018218404773540642E-02
    0.76074989905418151023E-02
    0.61969255938353114826E-02
    0.72039559454900592428E-02
    0.68540990506852708664E-02
    0.46558737785250600000E-02
    0.22961991477891277938E-02
    0.19202724916088926947E-02
    0.16632499716389501782E-02
    0.14782214850861631270E-02
    0.15034286017793720060E-02
    0.15190849670773140349E-02
    0.15183693742727704269E-02
    0.14835591396620744029E-02
    0.14588173625570623367E-02
    0.14998733667108824549E-02
    0.18717055960163482380E-02
    0.19202788784080495124E-02
    0.18838349045754564526E-02
    0.17948850278459314769E-02
    0.16477950289897152179E-02
    0.15156439099783518970E-02
    0.14668777358123330501E-02
