# vtk DataFile Version 3.0
LAPLACIEN  2D
ASCII
DATASET UNSTRUCTURED_GRID
 POINTS         391  float
  0.50371505999999999       0.50367786999999997        0.0000000000000000     
  0.29013556000000001       0.29014535000000002        0.0000000000000000     
  0.70165584999999997       0.71206597999999999        0.0000000000000000     
  0.70304188999999995       0.30176619999999998        0.0000000000000000     
  0.30920671999999999       0.71149227999999998        0.0000000000000000     
  0.79044983999999996       0.49884783999999999        0.0000000000000000     
  0.49102621000000002       0.20968644000000000        0.0000000000000000     
  0.49912957000000002       0.77208717000000004        0.0000000000000000     
  0.21724072999999999       0.48989389000000000        0.0000000000000000     
  0.83255933999999998       0.83046598000000005        0.0000000000000000     
  0.16646774000000000       0.17015694000000001        0.0000000000000000     
  0.83054514999999995       0.16736480000000001        0.0000000000000000     
  0.16953130999999999       0.83265739000000005        0.0000000000000000     
  0.42166445000000002       0.36345201999999999        0.0000000000000000     
  0.64462200999999997       0.56347807999999999        0.0000000000000000     
  0.35324633999999999       0.56311191000000005        0.0000000000000000     
  0.65456411000000003       0.84856860999999995        0.0000000000000000     
  0.35141477999999998       0.15563974000000000        0.0000000000000000     
  0.15290967000000000       0.35206625000000003        0.0000000000000000     
  0.82942241000000005       0.34936866000000000        0.0000000000000000     
  0.84390527000000004       0.64441694999999999        0.0000000000000000     
  0.63699174999999997       0.14284276000000001        0.0000000000000000     
  0.15620682999999999       0.64648446999999998        0.0000000000000000     
  0.36426062999999997       0.85756310999999996        0.0000000000000000     
  0.63489340999999999       0.40519052000000000        0.0000000000000000     
  0.52518872999999999       0.65957078000000002        0.0000000000000000     
  0.32158959999999998       0.42298103999999997        0.0000000000000000     
  0.58861710000000000       0.31711036999999997        0.0000000000000000     
  0.42078418000000001       0.69497151999999995        0.0000000000000000     
  0.48608786999999998       0.89334152000000000        0.0000000000000000     
   9.7084320000000002E-002  0.50000000000000000        0.0000000000000000     
  0.90291568000000000       0.50000000000000000        0.0000000000000000     
  0.51392453000000005       0.10668648999999999        0.0000000000000000     
  0.59792566999999996       0.73122754000000001        0.0000000000000000     
  0.74510058999999995       0.41124730999999998        0.0000000000000000     
  0.73212551999999997       0.90191560000000004        0.0000000000000000     
   9.7784830000000003E-002  0.26957329000000002        0.0000000000000000     
  0.26711221000000002        9.8671499999999995E-002   0.0000000000000000     
  0.90191560000000004       0.26787448000000003        0.0000000000000000     
  0.90118569000000004       0.73039821000000005        0.0000000000000000     
  0.73122947000000005        9.8017859999999998E-002   0.0000000000000000     
   9.8084400000000002E-002  0.73212551999999997        0.0000000000000000     
  0.26957329000000002       0.90221516999999996        0.0000000000000000     
  0.39283522999999998       0.25360379000000000        0.0000000000000000     
  0.74480864000000002       0.60495284999999999        0.0000000000000000     
  0.25505132000000003       0.60593640999999998        0.0000000000000000     
  0.52159297999999998       0.40671636000000000        0.0000000000000000     
  0.40768852000000000       0.47699891000000000        0.0000000000000000     
   9.1467049999999994E-002   9.1876959999999994E-002   0.0000000000000000     
  0.90842484999999995       0.90819225000000003        0.0000000000000000     
  0.90820104999999995        9.1566729999999999E-002   0.0000000000000000     
   9.1807449999999999E-002  0.90843574000000005        0.0000000000000000     
  0.27098960000000000       0.20527094000000001        0.0000000000000000     
  0.73457293999999995       0.79835387000000002        0.0000000000000000     
  0.79817773000000003       0.25713470999999999        0.0000000000000000     
  0.20747797000000001       0.72863946000000002        0.0000000000000000     
  0.20175195000000001       0.27583914999999998        0.0000000000000000     
  0.79603889000000005       0.72159035000000005        0.0000000000000000     
  0.71761666000000002       0.19748431999999999        0.0000000000000000     
  0.28462607000000001       0.80251899999999998        0.0000000000000000     
  0.69134598999999997       0.49261972999999998        0.0000000000000000     
  0.44720578999999999       0.58582935999999997        0.0000000000000000     
  0.24242269999999999       0.37228174000000003        0.0000000000000000     
  0.38265623999999998       0.93072131999999996        0.0000000000000000     
  0.60971754000000000       0.91988369000000003        0.0000000000000000     
   7.9163609999999995E-002  0.60979116000000000        0.0000000000000000     
  0.92010649000000000       0.61081183999999999        0.0000000000000000     
  0.61954008999999999        7.1530830000000004E-002   0.0000000000000000     
  0.91882012999999996       0.38917363999999999        0.0000000000000000     
  0.39086346000000000        8.0652249999999995E-002   0.0000000000000000     
   7.9183480000000001E-002  0.38966213000000000        0.0000000000000000     
  0.59114111999999996       0.49294315000000000        0.0000000000000000     
  0.63337980999999999       0.64485914000000000        0.0000000000000000     
  0.50012352000000004       0.29676539000000002        0.0000000000000000     
  0.82552601000000003       0.92753492000000004        0.0000000000000000     
  0.92774772999999999       0.82498556999999995        0.0000000000000000     
   7.1970870000000006E-002  0.17510291000000000        0.0000000000000000     
  0.17422821999999999        7.2635640000000001E-002   0.0000000000000000     
  0.82510813000000005        7.2134840000000006E-002   0.0000000000000000     
  0.92754665000000003       0.17446275999999999        0.0000000000000000     
  0.17501022999999999       0.92789951999999998        0.0000000000000000     
   7.2464680000000004E-002  0.82554053000000005        0.0000000000000000     
  0.30731587999999999       0.50885354999999999        0.0000000000000000     
  0.59033407999999998       0.22171178999999999        0.0000000000000000     
  0.40109191999999999       0.78725542000000004        0.0000000000000000     
  0.35420917000000002       0.63754104000000000        0.0000000000000000     
  0.15983976999999999       0.56665573000000002        0.0000000000000000     
  0.84108459999999996       0.56757886999999996        0.0000000000000000     
  0.83902096000000004       0.43344338999999998        0.0000000000000000     
  0.43230028999999998       0.16004268999999999        0.0000000000000000     
  0.57536027999999995       0.83041363999999995        0.0000000000000000     
  0.15771898000000001       0.42747892999999998        0.0000000000000000     
  0.34021692999999997       0.34221559000000001        0.0000000000000000     
  0.56002271999999997       0.57501117999999996        0.0000000000000000     
  0.65344329000000001       0.78147597999999996        0.0000000000000000     
   0.0000000000000000        0.0000000000000000        0.0000000000000000     
   1.0000000000000000        0.0000000000000000        0.0000000000000000     
   1.0000000000000000        1.0000000000000000        0.0000000000000000     
   0.0000000000000000        1.0000000000000000        0.0000000000000000     
  0.11111111000000000        0.0000000000000000        0.0000000000000000     
  0.22222222000000000        0.0000000000000000        0.0000000000000000     
  0.33333332999999998        0.0000000000000000        0.0000000000000000     
  0.44444444000000000        0.0000000000000000        0.0000000000000000     
  0.55555555999999995        0.0000000000000000        0.0000000000000000     
  0.66666667000000002        0.0000000000000000        0.0000000000000000     
  0.77777777999999997        0.0000000000000000        0.0000000000000000     
  0.88888889000000004        0.0000000000000000        0.0000000000000000     
   1.0000000000000000       0.11111111000000000        0.0000000000000000     
   1.0000000000000000       0.22222222000000000        0.0000000000000000     
   1.0000000000000000       0.33333332999999998        0.0000000000000000     
   1.0000000000000000       0.44444444000000000        0.0000000000000000     
   1.0000000000000000       0.55555555999999995        0.0000000000000000     
   1.0000000000000000       0.66666667000000002        0.0000000000000000     
   1.0000000000000000       0.77777777999999997        0.0000000000000000     
   1.0000000000000000       0.88888889000000004        0.0000000000000000     
  0.88888889000000004        1.0000000000000000        0.0000000000000000     
  0.77777777999999997        1.0000000000000000        0.0000000000000000     
  0.66666667000000002        1.0000000000000000        0.0000000000000000     
  0.55555555999999995        1.0000000000000000        0.0000000000000000     
  0.44444444000000000        1.0000000000000000        0.0000000000000000     
  0.33333332999999998        1.0000000000000000        0.0000000000000000     
  0.22222222000000000        1.0000000000000000        0.0000000000000000     
  0.11111111000000000        1.0000000000000000        0.0000000000000000     
   0.0000000000000000       0.11111111000000000        0.0000000000000000     
   0.0000000000000000       0.22222222000000000        0.0000000000000000     
[...]
 CELL_DATA         354
 SCALARS V float
 LOOKUP_TABLE default
    0.19389078826478891530E-02
    0.62062417448077288745E-02
    0.14762603565028893475E-02
    0.15092422608046845382E-02
    0.22381967256718472876E-02
    0.26690015948443585048E-02
    0.97512819986785084780E-02
    0.58248333822536026497E-02
    0.11159029475983711643E-01
    0.12057003569487575317E-01
    0.14010860806839667975E-01
    0.13175207251076941767E-01
    0.14276988234379325848E-01
    0.14425017203286281953E-01
    0.14134311501124520449E-01
    0.14401122386642737500E-01
    0.13670525417353668329E-01
    0.12563041783578615673E-01
    0.89705840839490614408E-02
    0.11436738636690486903E-01
    0.77949616923550305025E-02
    0.93972597411820096847E-02
    0.10984315839036425111E-01
    0.10070301626577137649E-01
    0.11101155148908645534E-01
    0.10791872998824537933E-01
    0.80646312331678782909E-02
    0.10025793076341608240E-01
    0.60403302476051525319E-02
    0.42551972790285542275E-02
    0.21445741988853042788E-02
    0.24507023261554090193E-02
    0.19688845261931955249E-02
    0.17464388299693542079E-02
    0.15278776611930117678E-02
    0.16296410881989787517E-02
    0.14979105786269444021E-02
    0.15018063605025393399E-02
    0.15952506250615208685E-02
    0.15259125347897614482E-02
    0.16029692945493995062E-02
    0.16166656136569850215E-02
    0.16451258020056948143E-02
    0.16237862874107264043E-02
    0.16389590725158957943E-02
    0.15394101359154190641E-02
    0.14826229911425140452E-02
    0.15007461474682787586E-02
    0.14667235709185559925E-02
    0.14417260380794629220E-02
    0.14467291815660231809E-02
    0.14160149119090759736E-02
    0.20072197116948586187E-02
    0.20253876886265126042E-02
    0.21904922900468559374E-02
    0.20651788347983653961E-02
    0.21857737037105197733E-02
    0.21281370246981380634E-02
    0.20455370240440818794E-02
    0.20946746977699034174E-02
    0.19721478482589115122E-02
    0.18114921545678670193E-02
    0.15907042535127169716E-02
    0.17168389415225945253E-02
    0.15330611896836937244E-02
    0.14477352684814238492E-02
    0.13728403561280033435E-02
    0.13966983655058226935E-02
    0.14161923575330734315E-01
    0.13271089212492325621E-01
    0.12791002008869784348E-01
    0.13668680781274387959E-01
    0.13086399260825241908E-01
    0.13254931218683598318E-01
    0.11926008625836696797E-01
    0.10861471316734790452E-01
    0.11194517827465968324E-01
    0.12533866831971891831E-01
    0.83613498168731287263E-02
    0.98399110716331523313E-02
    0.37274334379494900894E-02
    0.67787272322392738352E-02
    0.10170674422153341138E-01
    0.49141044341090411168E-02
    0.13694654358832235308E-01
    0.14172600772019268434E-01
    0.12768268741841559688E-01
    0.14092872105051560544E-01
    0.13939338237804931031E-01
    0.14641149045380219551E-01
    0.13803923387825897326E-01
    0.51952787769928539599E-02
    0.47662159422661824759E-02
    0.26128046254739246447E-02
    0.24534622864381947817E-02
    0.27913385943482351033E-02
    0.68639905517647809355E-02
    0.10556184319662023988E-01
    0.13078384353601070489E-01
    0.11467163441729370799E-01
    0.12649887461409254838E-01
    0.10640792203149493367E-01
    0.11850649207350913775E-01
    0.14778277923079494172E-01
    0.14712612967164254846E-01
    0.15035768252958887914E-01
    0.15134018469850837874E-01
    0.14607806884523708707E-01
    0.84670708452616628981E-02
    0.65510224106461317772E-02
    0.25333823251440946295E-02
    0.61846301871481459272E-02
    0.32431643529260015604E-02
    0.30500420827375539917E-02
    0.11028996638254360066E-01
    0.44501284624277014090E-02
    0.82385477200897297423E-02
    0.10806385333562679163E-01
    0.10500886456413593625E-01
    0.46883571932985774328E-02
    0.83308648714484692666E-02
    0.19305729815725046743E-02
    0.22070811894483316484E-02
    0.17818084800400165943E-02
    0.23447533821938475185E-02
    0.25387911425675223354E-02
    0.17754268402018023171E-02
    0.18983878872060010179E-02
    0.53442987403972911503E-02
    0.95515073391766458499E-02
    0.33098353853665204993E-02
    0.10152476628023461916E-01
    0.88062600375590060348E-02
    0.28453272228222076592E-02
    0.65029776284683503407E-02
    0.11843058708921903877E-01
    0.13194711387258667434E-01
    0.11493126432275447418E-01
    0.12787966096690021878E-01
    0.13456323429888901455E-01
    0.12244906521241974776E-01
    0.11258452220826274323E-01
    0.16618248477126198320E-02
    0.15969342842141309030E-02
    0.14638280651570268268E-02
    0.18917641831943156090E-02
    0.18286349491138833949E-02
    0.14839956911722003083E-02
    0.15080937808399817127E-02
    0.13250104233318934013E-01
    0.14098842425975335185E-01
    0.14597355253776058553E-01
    0.13547870068893196754E-01
    0.15056051855958253044E-01
    0.13580980960167098048E-01
    0.11418868528588688865E-01
    0.12722758536741689966E-01
    0.13361365086486297338E-01
    0.11291457874496087926E-01
    0.12508753437956415117E-01
    0.99601848616119141588E-02
    0.12212348175032122083E-01
    0.11564988808215246469E-01
    0.10824501211791806576E-01
    0.10711100868521904877E-01
    0.21218125329430059627E-02
    0.25223561425058095738E-02
    0.21315566101520340946E-02
    0.24330730181687377882E-02
    0.26518695469834314797E-02
    0.11404382472319934266E-01
    0.13423534548518339243E-01
    0.12130115923670213574E-01
    0.12340372348188707527E-01
    0.13341890576743092867E-01
    0.56364517858231580685E-02
    0.90715122970952688508E-02
    0.10116376490890418433E-01
    0.42659187056613709702E-02
    0.77003774356956874308E-02
    0.13181168583735972805E-01
    0.11774035372506583275E-01
    0.12752548611430335884E-01
    0.11401190325865673270E-01
    0.12216510013675675045E-01
    0.34300446697582758979E-02
    0.97756647425184840794E-02
    0.64455533813764318701E-02
    0.59743771274405558375E-02
    0.92872277326947229315E-02
    0.14635366592921786669E-01
    0.14300317065848142800E-01
    0.14474755288029304140E-01
    0.14526032881081223092E-01
    0.15401024662478196570E-01
    0.20737748924309976073E-02
    0.28196473201259081992E-02
    0.22860607779621408032E-02
    0.22485261332261898860E-02
    0.26232943221721830018E-02
    0.19029857721261029049E-02
    0.17981477322472775096E-02
    0.19965080506791767039E-02
    0.17662015560754638997E-02
    0.21319268060713326453E-02
    0.13822402716900125327E-01
    0.14275385070588283293E-01
    0.14384038164622994088E-01
    0.14109208069496092727E-01
    0.14432319481574300279E-01
    0.96658508705464146055E-02
    0.93744962357971382827E-02
    0.10834382789622225285E-01
    0.10388596187755536754E-01
    0.11191957335293226117E-01
    0.12690174774497225280E-01
    0.11206183759352759260E-01
    0.11393278272729064765E-01
    0.12474963715240202505E-01
    0.13298757810890488029E-01
    0.11928673361509614659E-01
    0.11537523398548049647E-01
    0.10629616405284571246E-01
    0.35912641594909979273E-02
    0.91837792833097467438E-02
    0.17435161676580721805E-02
    0.18768174221389063213E-02
    0.22552124529146115595E-02
    0.22530860212893440500E-02
    0.22288178292699609845E-02
    0.25236477325656344120E-02
    0.28190568205104073532E-02
    0.41533561519287859332E-02
    0.75093974695345511172E-02
    0.98351473342444678538E-02
    0.95512563586421361100E-02
    0.10446406358635099143E-01
    0.14435099160280115416E-01
    0.13891838164728886884E-01
    0.15326713485237583243E-01
    0.14097658971856882187E-01
    0.10115895208192657306E-01
    0.33951432165545735245E-02
    0.48157604500469099879E-02
    0.13398651659143558448E-01
    0.12992194545304373149E-01
    0.22177788894615279788E-02
    0.18429474106845919641E-02
    0.17028511242656832643E-02
    0.74701095304176533263E-02
    0.28631551575556270055E-02
    0.25684833270717250496E-02
    0.10577789050076051580E-01
    0.11576801351103480769E-01
    0.86471756601894829430E-02
    0.12258941545351134672E-01
    0.11175163521227035601E-01
    0.11135353993985458790E-01
    0.29597215985027605992E-02
    0.29199151551835356502E-02
    0.20143206914551539839E-02
    0.13854173623877412413E-01
    0.14328393076636341402E-01
    0.13180815240525296100E-01
    0.19604221884281314639E-02
    0.18870184548814210139E-02
    0.15521132054650854139E-02
    0.18200361056317699605E-02
    0.16307755099475255024E-02
    0.14786107091922945107E-02
    0.13142918157769942905E-01
    0.15022400330048788636E-01
    0.13950178153648341156E-01
    0.13588764822302736024E-01
    0.90350616666399867494E-02
    0.12078578176925510237E-01
    0.10434514464232425707E-01
    0.10480625543036432151E-01
    0.27719500292937441013E-02
    0.99802126852984521244E-02
    0.85679615118683920966E-02
    0.44168078335880597146E-02
    0.14114402787512966148E-01
    0.14425231403169449379E-01
    0.14149887782707256528E-01
    0.12604240593664925441E-01
    0.12172563190431683403E-01
    0.23816717289907316304E-02
    0.31671445891907064156E-02
    0.16090391907996326459E-02
    0.16991641813031892281E-02
    0.11262628257711352481E-01
    0.10476288907079300827E-01
    0.13710510703318068686E-02
    0.13877507480411629612E-02
    0.10310815286023095050E-01
    0.33025192769908992552E-02
    0.30344791660200571594E-02
    0.13649135195224336436E-01
    0.21466800144003647839E-02
    0.10409573175315659649E-01
    0.15318123660873789182E-01
    0.22594886567903200818E-02
    0.13538890698322104608E-01
    0.11042643361869795837E-01
    0.12055919741430713710E-01
    0.10172055271303478974E-01
    0.11783381956044572392E-01
    0.21822959846618198571E-02
    0.24267502458261689703E-02
    0.85509961577443054093E-02
    0.10786564066230307918E-01
    0.13476399675449883542E-01
    0.39757482158069203798E-02
    0.13431951957221948540E-01
    0.11311754944907860543E-01
    0.12864149096785827686E-01
    0.28441124705955839712E-02
    0.19188662640680592773E-02
    0.17157444132413469072E-02
    0.47143348136657100417E-02
    0.40026548603811894916E-02
    0.14526978291066875749E-02
    0.14275631784327891260E-02
    0.15536631023413635146E-02
    0.14716565977183934492E-02
    0.25981471166755202434E-02
    0.67736212330426386410E-02
    0.75119945578962319527E-02
    0.83777651008061608529E-02
    0.86219810804404224680E-02
    0.82617772447916466849E-02
    0.73888507760029153298E-02
    0.60307236643476497956E-02
    0.69996188983223895513E-02
    0.66611291779337441360E-02
    0.45317580556946974318E-02
    0.22330227018094702188E-02
    0.18654314244142715992E-02
    0.16161711865635812208E-02
    0.14372359658288008655E-02
    0.14613983275476110334E-02
    0.14764407083119794693E-02
    0.14758071383780910907E-02
    0.14421887894842716406E-02
    0.14185902405930714623E-02
    0.14591636748781601669E-02
    0.18182054894953169309E-02
    0.18654296478877738577E-02
    0.18300000593116862342E-02
    0.17437249422529476402E-02
    0.16010867730442302371E-02
    0.14733141596426444636E-02
    0.14267452298952162416E-02
