# vtk DataFile Version 3.0
LAPLACIEN  2D
ASCII
DATASET UNSTRUCTURED_GRID
 POINTS         391  float
  0.50371505999999999       0.50367786999999997        0.0000000000000000     
  0.29013556000000001       0.29014535000000002        0.0000000000000000     
  0.70165584999999997       0.71206597999999999        0.0000000000000000     
  0.70304188999999995       0.30176619999999998        0.0000000000000000     
  0.30920671999999999       0.71149227999999998        0.0000000000000000     
  0.79044983999999996       0.49884783999999999        0.0000000000000000     
  0.49102621000000002       0.20968644000000000        0.0000000000000000     
  0.49912957000000002       0.77208717000000004        0.0000000000000000     
  0.21724072999999999       0.48989389000000000        0.0000000000000000     
  0.83255933999999998       0.83046598000000005        0.0000000000000000     
  0.16646774000000000       0.17015694000000001        0.0000000000000000     
  0.83054514999999995       0.16736480000000001        0.0000000000000000     
  0.16953130999999999       0.83265739000000005        0.0000000000000000     
  0.42166445000000002       0.36345201999999999        0.0000000000000000     
  0.64462200999999997       0.56347807999999999        0.0000000000000000     
  0.35324633999999999       0.56311191000000005        0.0000000000000000     
  0.65456411000000003       0.84856860999999995        0.0000000000000000     
  0.35141477999999998       0.15563974000000000        0.0000000000000000     
  0.15290967000000000       0.35206625000000003        0.0000000000000000     
  0.82942241000000005       0.34936866000000000        0.0000000000000000     
  0.84390527000000004       0.64441694999999999        0.0000000000000000     
  0.63699174999999997       0.14284276000000001        0.0000000000000000     
  0.15620682999999999       0.64648446999999998        0.0000000000000000     
  0.36426062999999997       0.85756310999999996        0.0000000000000000     
  0.63489340999999999       0.40519052000000000        0.0000000000000000     
  0.52518872999999999       0.65957078000000002        0.0000000000000000     
  0.32158959999999998       0.42298103999999997        0.0000000000000000     
  0.58861710000000000       0.31711036999999997        0.0000000000000000     
  0.42078418000000001       0.69497151999999995        0.0000000000000000     
  0.48608786999999998       0.89334152000000000        0.0000000000000000     
   9.7084320000000002E-002  0.50000000000000000        0.0000000000000000     
  0.90291568000000000       0.50000000000000000        0.0000000000000000     
  0.51392453000000005       0.10668648999999999        0.0000000000000000     
  0.59792566999999996       0.73122754000000001        0.0000000000000000     
  0.74510058999999995       0.41124730999999998        0.0000000000000000     
  0.73212551999999997       0.90191560000000004        0.0000000000000000     
   9.7784830000000003E-002  0.26957329000000002        0.0000000000000000     
  0.26711221000000002        9.8671499999999995E-002   0.0000000000000000     
  0.90191560000000004       0.26787448000000003        0.0000000000000000     
  0.90118569000000004       0.73039821000000005        0.0000000000000000     
  0.73122947000000005        9.8017859999999998E-002   0.0000000000000000     
   9.8084400000000002E-002  0.73212551999999997        0.0000000000000000     
  0.26957329000000002       0.90221516999999996        0.0000000000000000     
  0.39283522999999998       0.25360379000000000        0.0000000000000000     
  0.74480864000000002       0.60495284999999999        0.0000000000000000     
  0.25505132000000003       0.60593640999999998        0.0000000000000000     
  0.52159297999999998       0.40671636000000000        0.0000000000000000     
  0.40768852000000000       0.47699891000000000        0.0000000000000000     
   9.1467049999999994E-002   9.1876959999999994E-002   0.0000000000000000     
  0.90842484999999995       0.90819225000000003        0.0000000000000000     
  0.90820104999999995        9.1566729999999999E-002   0.0000000000000000     
   9.1807449999999999E-002  0.90843574000000005        0.0000000000000000     
  0.27098960000000000       0.20527094000000001        0.0000000000000000     
  0.73457293999999995       0.79835387000000002        0.0000000000000000     
  0.79817773000000003       0.25713470999999999        0.0000000000000000     
  0.20747797000000001       0.72863946000000002        0.0000000000000000     
  0.20175195000000001       0.27583914999999998        0.0000000000000000     
  0.79603889000000005       0.72159035000000005        0.0000000000000000     
  0.71761666000000002       0.19748431999999999        0.0000000000000000     
  0.28462607000000001       0.80251899999999998        0.0000000000000000     
  0.69134598999999997       0.49261972999999998        0.0000000000000000     
  0.44720578999999999       0.58582935999999997        0.0000000000000000     
  0.24242269999999999       0.37228174000000003        0.0000000000000000     
  0.38265623999999998       0.93072131999999996        0.0000000000000000     
  0.60971754000000000       0.91988369000000003        0.0000000000000000     
   7.9163609999999995E-002  0.60979116000000000        0.0000000000000000     
  0.92010649000000000       0.61081183999999999        0.0000000000000000     
  0.61954008999999999        7.1530830000000004E-002   0.0000000000000000     
  0.91882012999999996       0.38917363999999999        0.0000000000000000     
  0.39086346000000000        8.0652249999999995E-002   0.0000000000000000     
   7.9183480000000001E-002  0.38966213000000000        0.0000000000000000     
  0.59114111999999996       0.49294315000000000        0.0000000000000000     
  0.63337980999999999       0.64485914000000000        0.0000000000000000     
  0.50012352000000004       0.29676539000000002        0.0000000000000000     
  0.82552601000000003       0.92753492000000004        0.0000000000000000     
  0.92774772999999999       0.82498556999999995        0.0000000000000000     
   7.1970870000000006E-002  0.17510291000000000        0.0000000000000000     
  0.17422821999999999        7.2635640000000001E-002   0.0000000000000000     
  0.82510813000000005        7.2134840000000006E-002   0.0000000000000000     
  0.92754665000000003       0.17446275999999999        0.0000000000000000     
  0.17501022999999999       0.92789951999999998        0.0000000000000000     
   7.2464680000000004E-002  0.82554053000000005        0.0000000000000000     
  0.30731587999999999       0.50885354999999999        0.0000000000000000     
  0.59033407999999998       0.22171178999999999        0.0000000000000000     
  0.40109191999999999       0.78725542000000004        0.0000000000000000     
  0.35420917000000002       0.63754104000000000        0.0000000000000000     
  0.15983976999999999       0.56665573000000002        0.0000000000000000     
  0.84108459999999996       0.56757886999999996        0.0000000000000000     
  0.83902096000000004       0.43344338999999998        0.0000000000000000     
  0.43230028999999998       0.16004268999999999        0.0000000000000000     
  0.57536027999999995       0.83041363999999995        0.0000000000000000     
  0.15771898000000001       0.42747892999999998        0.0000000000000000     
  0.34021692999999997       0.34221559000000001        0.0000000000000000     
  0.56002271999999997       0.57501117999999996        0.0000000000000000     
  0.65344329000000001       0.78147597999999996        0.0000000000000000     
   0.0000000000000000        0.0000000000000000        0.0000000000000000     
   1.0000000000000000        0.0000000000000000        0.0000000000000000     
   1.0000000000000000        1.0000000000000000        0.0000000000000000     
   0.0000000000000000        1.0000000000000000        0.0000000000000000     
  0.11111111000000000        0.0000000000000000        0.0000000000000000     
  0.22222222000000000        0.0000000000000000        0.0000000000000000     
  0.33333332999999998        0.0000000000000000        0.0000000000000000     
  0.44444444000000000        0.0000000000000000        0.0000000000000000     
  0.55555555999999995        0.0000000000000000        0.0000000000000000     
  0.66666667000000002        0.0000000000000000        0.0000000000000000     
  0.77777777999999997        0.0000000000000000        0.0000000000000000     
  0.88888889000000004        0.0000000000000000        0.0000000000000000     
   1.0000000000000000       0.11111111000000000        0.0000000000000000     
   1.0000000000000000       0.22222222000000000        0.0000000000000000     
   1.0000000000000000       0.33333332999999998        0.0000000000000000     
   1.0000000000000000       0.44444444000000000        0.0000000000000000     
   1.0000000000000000       0.55555555999999995        0.0000000000000000     
   1.0000000000000000       0.66666667000000002        0.0000000000000000     
   1.0000000000000000       0.77777777999999997        0.0000000000000000     
   1.0000000000000000       0.88888889000000004        0.0000000000000000     
  0.88888889000000004        1.0000000000000000        0.0000000000000000     
  0.77777777999999997        1.0000000000000000        0.0000000000000000     
  0.66666667000000002        1.0000000000000000        0.0000000000000000     
  0.55555555999999995        1.0000000000000000        0.0000000000000000     
  0.44444444000000000        1.0000000000000000        0.0000000000000000     
  0.33333332999999998        1.0000000000000000        0.0000000000000000     
  0.22222222000000000        1.0000000000000000        0.0000000000000000     
  0.11111111000000000        1.0000000000000000        0.0000000000000000     
   0.0000000000000000       0.11111111000000000        0.0000000000000000     
   0.0000000000000000       0.22222222000000000        0.0000000000000000     
[...]
 CELL_DATA         354
 SCALARS V float
 LOOKUP_TABLE default
    0.30853930012418994550E-01
    0.40785195060041593007E-01
    0.22328388947814883231E-01
    0.18624171201528903069E-01
    0.33611335339934364508E-01
    0.36269370590424010459E-01
    0.43317282353016656193E-01
    0.39492575018692452349E-01
    0.46983257398287257833E-01
    0.50857871867594661719E-01
    0.58528946950898219637E-01
    0.54341650486375785156E-01
    0.60169338502441258032E-01
    0.59184704802489995767E-01
    0.56940341523819819336E-01
    0.58296797725020499392E-01
    0.54237189394396978503E-01
    0.50201527997739393838E-01
    0.43971725884769691239E-01
    0.46853208656048042635E-01
    0.42664484108856079447E-01
    0.43882984034397561068E-01
    0.47127638711395802851E-01
    0.45333979420272896288E-01
    0.47494806426269430000E-01
    0.46475825968838611890E-01
    0.43927317306228813587E-01
    0.45357291816130004825E-01
    0.41823498573981751636E-01
    0.38796902444954831091E-01
    0.33566453426454638531E-01
    0.36225180534442222302E-01
    0.30997482690800461785E-01
    0.28284244597214389105E-01
    0.24230246319308729186E-01
    0.26043131070167185176E-01
    0.23246977147667879926E-01
    0.23875354997153135778E-01
    0.25945359397203739821E-01
    0.24753133479536709033E-01
    0.26560207509459924508E-01
    0.26679260401802615266E-01
    0.27203449153101261909E-01
    0.26855612513356642845E-01
    0.26796337056206112615E-01
    0.25511853443203856562E-01
    0.24148294027268403517E-01
    0.24720921122174468326E-01
    0.23137511711520349078E-01
    0.21676474281878632677E-01
    0.19678962613313234764E-01
    0.20545608861765755904E-01
    0.31870969567167097003E-01
    0.32404136084173230936E-01
    0.34302811656232265469E-01
    0.33193457705826656667E-01
    0.34496159399166378967E-01
    0.33810314534328762825E-01
    0.32620041221710652235E-01
    0.33222939002822880761E-01
    0.31451745846475365198E-01
    0.29594417170784738380E-01
    0.26408881758350093161E-01
    0.28031709767748047568E-01
    0.24718983531165618361E-01
    0.22793389841755405667E-01
    0.19991836064673425277E-01
    0.21233353645479360883E-01
    0.70507485565801469862E-01
    0.63446058266124538694E-01
    0.59156537672510854653E-01
    0.66782808622825026723E-01
    0.61185602112836717792E-01
    0.61161449933160978720E-01
    0.54716667675233796042E-01
    0.51449597184858385235E-01
    0.53273220038961142941E-01
    0.58823558070016046528E-01
    0.42558619679339562691E-01
    0.45879529163373344858E-01
    0.38695142778652248661E-01
    0.40885283071116267084E-01
    0.46120650864933047941E-01
    0.39850637072583829090E-01
    0.68634631782083302398E-01
    0.79854001310899092037E-01
    0.87676914018616158852E-01
    0.72591348674170802502E-01
    0.70346277912765098339E-01
    0.75330648799585675501E-01
    0.83576352119626953763E-01
    0.40015334875337663090E-01
    0.39019612653563032212E-01
    0.34945262473845585538E-01
    0.34191868187378154920E-01
    0.36502677783574112580E-01
    0.41059510843596824792E-01
    0.51457932019791950695E-01
    0.61398600552948136289E-01
    0.53533840563332379947E-01
    0.59897697332162658235E-01
    0.51207821676653171583E-01
    0.56118542003781836380E-01
    0.72959371769282188591E-01
    0.73609283324127305903E-01
    0.81468440773321312842E-01
    0.81417485001521253118E-01
    0.71550952431782888219E-01
    0.43184369940149167078E-01
    0.40757317007851262547E-01
    0.34326401038804348065E-01
    0.40472822862234220098E-01
    0.36807465714617022823E-01
    0.36418712590022314646E-01
    0.50218899768654359783E-01
    0.39506669794119146644E-01
    0.42760512835054845238E-01
    0.47432413064495734800E-01
    0.47437441542494511448E-01
    0.40126951815199457529E-01
    0.42725089428489494703E-01
    0.30021406778583802077E-01
    0.32703728476949481263E-01
    0.27827581457436269957E-01
    0.33172736428554554233E-01
    0.34788971731393968090E-01
    0.28188206990220711357E-01
    0.29629799214689389597E-01
    0.40238273596466436755E-01
    0.45012694867799858678E-01
    0.38115805777510031183E-01
    0.47235720038124567877E-01
    0.44599464356223153527E-01
    0.38205058547617389009E-01
    0.40814750788131161363E-01
    0.54908164934416338332E-01
    0.59128460405890911900E-01
    0.51015534044752862408E-01
    0.60725371745417755509E-01
    0.63678115728214162994E-01
    0.53926950130295366048E-01
    0.51785354964409495426E-01
    0.26891321191132321056E-01
    0.26080747193658153360E-01
    0.23386540997683637894E-01
    0.29111404522703020203E-01
    0.28662583875976019310E-01
    0.24101859708082349482E-01
    0.24553262191383047608E-01
    0.63365562076520415280E-01
    0.70486811888311962093E-01
    0.74954736811560757070E-01
    0.66444709869011880921E-01
    0.77824751241492254317E-01
    0.65754202262960539938E-01
    0.54581568689199819189E-01
    0.60825648859427927651E-01
    0.62783446388657918047E-01
    0.54009139266338761221E-01
    0.58086016020767058943E-01
    0.45735792465023912545E-01
    0.54870896526140640337E-01
    0.51826429371381613209E-01
    0.50212925249802024819E-01
    0.47166208238153678467E-01
    0.31158484555029154761E-01
    0.34003888912764596020E-01
    0.31110827783228843513E-01
    0.33750632647684131182E-01
    0.35343154997682493801E-01
    0.53141071956855336078E-01
    0.62603674329110778340E-01
    0.55730705837241246992E-01
    0.57158741351298475442E-01
    0.62462794736768412207E-01
    0.40415788607163646851E-01
    0.44519836632226486572E-01
    0.45877302616806232838E-01
    0.39328912827950798792E-01
    0.42038550751177579390E-01
    0.64333379094958925704E-01
    0.56458217683878063331E-01
    0.62686270084700748684E-01
    0.54822431715814412545E-01
    0.58123652563353278566E-01
    0.38267544936001415823E-01
    0.45494425993350851023E-01
    0.40627893736873373076E-01
    0.40860113328233901853E-01
    0.44725078793376844832E-01
    0.70280145709147284760E-01
    0.66344926712743709785E-01
    0.71859607640562442321E-01
    0.66946736792290101326E-01
    0.77231906270779610013E-01
    0.30594799482743455232E-01
    0.36734149755918765745E-01
    0.32988337408664469841E-01
    0.32128410310502661384E-01
    0.35311142891427282908E-01
    0.30353359880024327611E-01
    0.28171601828241351478E-01
    0.30697702502833199012E-01
    0.28400914713845763077E-01
    0.32495028556960153798E-01
    0.86755325614722239580E-01
    0.73172755716357923417E-01
    0.79858826690260578673E-01
    0.70993066199320498111E-01
    0.73442539633102002505E-01
    0.45560816273874482629E-01
    0.45081684545208666748E-01
    0.50751143004590743013E-01
    0.49253488652895291433E-01
    0.52818812786027312389E-01
    0.59133629960658774805E-01
    0.53197962648866017887E-01
    0.53236306663590825250E-01
    0.59201449635287048401E-01
    0.87320362495133724279E-01
    0.91122237600753983044E-01
    0.91504444226584394362E-01
    0.47684926141649146281E-01
    0.38873497803409047535E-01
    0.43815516085208776331E-01
    0.28178715458955019835E-01
    0.29528369083633886766E-01
    0.33016073131122342099E-01
    0.32552556656977149618E-01
    0.32898259232971127641E-01
    0.35702521777869207498E-01
    0.36270835049915683967E-01
    0.38570445355659184472E-01
    0.43137756629811931097E-01
    0.48318561038811991271E-01
    0.47226295415945244993E-01
    0.51604359234627070196E-01
    0.64759961452693193262E-01
    0.61008698829256434448E-01
    0.76017817915732407985E-01
    0.66767863339931801669E-01
    0.45915427908383987798E-01
    0.38337292122412554296E-01
    0.39741118482537883538E-01
    0.66088383763864999576E-01
    0.60986569250864368363E-01
    0.32037954375448353395E-01
    0.28889899053494309811E-01
    0.27382794688826955776E-01
    0.42419872517713196058E-01
    0.37086436433483721542E-01
    0.36590900812227947214E-01
    0.50028647845602541855E-01
    0.51893494131874946806E-01
    0.43027021075767710179E-01
    0.58373130346094266596E-01
    0.51198867866836403340E-01
    0.50063661889677688044E-01
    0.36454710103085957718E-01
    0.37053130149728760734E-01
    0.30961541605063216953E-01
    0.65582951226592856031E-01
    0.62004673906358408197E-01
    0.55363794860728052227E-01
    0.29751018265219149328E-01
    0.29155958087627831254E-01
    0.25102802881143995023E-01
    0.28420356663300061495E-01
    0.26282714759742038801E-01
    0.23994325077111286482E-01
    0.59634542065035343883E-01
    0.76495595246315800653E-01
    0.67654355389340753435E-01
    0.64754925144551361837E-01
    0.43961862444669236316E-01
    0.57044172735676190733E-01
    0.50043316157068813699E-01
    0.48805791958728098057E-01
    0.36315685263817537587E-01
    0.45855336318201170287E-01
    0.42862538127901424201E-01
    0.38958347124410153128E-01
    0.69539469824098282258E-01
    0.73368118611139968022E-01
    0.83037954214383480345E-01
    0.57268008299791846316E-01
    0.55260505050120978243E-01
    0.34982279096305350652E-01
    0.37076641289207595831E-01
    0.25636454301504300185E-01
    0.26799833886803459126E-01
    0.48734764345147202347E-01
    0.47076299795847494079E-01
    0.21797930859047409680E-01
    0.22165686402498684104E-01
    0.49551663775353284314E-01
    0.36925624416323708787E-01
    0.36693794150670491772E-01
    0.67700722044316596904E-01
    0.31647061637088462482E-01
    0.48663896374553809732E-01
    0.78427893832418715814E-01
    0.33404916084161927203E-01
    0.66596224881258311856E-01
    0.48394402519564470866E-01
    0.55723862139716875963E-01
    0.45338252771092608928E-01
    0.55866741883994118500E-01
    0.31728833174166241882E-01
    0.33945173511300788527E-01
    0.43712586207238959823E-01
    0.52899253305213340959E-01
    0.61582888787968532995E-01
    0.38770407369656756380E-01
    0.62636600697100239254E-01
    0.53674349767632634212E-01
    0.87597483510486434666E-01
    0.36423301281953979203E-01
    0.30331684071118799467E-01
    0.28815482793408168927E-01
    0.39505004506889734861E-01
    0.38384165303260241175E-01
    0.21815621994526822325E-01
    0.20954714520454227611E-01
    0.17674149610446075742E-01
    0.17948755580983397073E-01
    0.36352677389065279900E-01
    0.43089298489746408194E-01
    0.49509536623388583632E-01
    0.54384168912488747849E-01
    0.54959868040869823413E-01
    0.51971401140605416602E-01
    0.45993916344183052858E-01
    0.41754130279047681207E-01
    0.43615250867477084462E-01
    0.42747115144491587557E-01
    0.39908325713830024306E-01
    0.35498492867863905287E-01
    0.30725998007681620122E-01
    0.25986947240734949161E-01
    0.22788310224730611714E-01
    0.24285372971989838825E-01
    0.24886578236434205025E-01
    0.24802094360304321324E-01
    0.23629270480407020549E-01
    0.22048709536757398614E-01
    0.19880432480137367329E-01
    0.30687476178894293466E-01
    0.31727990717560002054E-01
    0.31229447721940528648E-01
    0.29697222255079203102E-01
    0.27089831797853233114E-01
    0.24101665907555098328E-01
    0.20899955546107580606E-01
