# vtk DataFile Version 3.0
LAPLACIEN  2D
ASCII
DATASET UNSTRUCTURED_GRID
 POINTS         391  float
  0.50371505999999999       0.50367786999999997        0.0000000000000000     
  0.29013556000000001       0.29014535000000002        0.0000000000000000     
  0.70165584999999997       0.71206597999999999        0.0000000000000000     
  0.70304188999999995       0.30176619999999998        0.0000000000000000     
  0.30920671999999999       0.71149227999999998        0.0000000000000000     
  0.79044983999999996       0.49884783999999999        0.0000000000000000     
  0.49102621000000002       0.20968644000000000        0.0000000000000000     
  0.49912957000000002       0.77208717000000004        0.0000000000000000     
  0.21724072999999999       0.48989389000000000        0.0000000000000000     
  0.83255933999999998       0.83046598000000005        0.0000000000000000     
  0.16646774000000000       0.17015694000000001        0.0000000000000000     
  0.83054514999999995       0.16736480000000001        0.0000000000000000     
  0.16953130999999999       0.83265739000000005        0.0000000000000000     
  0.42166445000000002       0.36345201999999999        0.0000000000000000     
  0.64462200999999997       0.56347807999999999        0.0000000000000000     
  0.35324633999999999       0.56311191000000005        0.0000000000000000     
  0.65456411000000003       0.84856860999999995        0.0000000000000000     
  0.35141477999999998       0.15563974000000000        0.0000000000000000     
  0.15290967000000000       0.35206625000000003        0.0000000000000000     
  0.82942241000000005       0.34936866000000000        0.0000000000000000     
  0.84390527000000004       0.64441694999999999        0.0000000000000000     
  0.63699174999999997       0.14284276000000001        0.0000000000000000     
  0.15620682999999999       0.64648446999999998        0.0000000000000000     
  0.36426062999999997       0.85756310999999996        0.0000000000000000     
  0.63489340999999999       0.40519052000000000        0.0000000000000000     
  0.52518872999999999       0.65957078000000002        0.0000000000000000     
  0.32158959999999998       0.42298103999999997        0.0000000000000000     
  0.58861710000000000       0.31711036999999997        0.0000000000000000     
  0.42078418000000001       0.69497151999999995        0.0000000000000000     
  0.48608786999999998       0.89334152000000000        0.0000000000000000     
   9.7084320000000002E-002  0.50000000000000000        0.0000000000000000     
  0.90291568000000000       0.50000000000000000        0.0000000000000000     
  0.51392453000000005       0.10668648999999999        0.0000000000000000     
  0.59792566999999996       0.73122754000000001        0.0000000000000000     
  0.74510058999999995       0.41124730999999998        0.0000000000000000     
  0.73212551999999997       0.90191560000000004        0.0000000000000000     
   9.7784830000000003E-002  0.26957329000000002        0.0000000000000000     
  0.26711221000000002        9.8671499999999995E-002   0.0000000000000000     
  0.90191560000000004       0.26787448000000003        0.0000000000000000     
  0.90118569000000004       0.73039821000000005        0.0000000000000000     
  0.73122947000000005        9.8017859999999998E-002   0.0000000000000000     
   9.8084400000000002E-002  0.73212551999999997        0.0000000000000000     
  0.26957329000000002       0.90221516999999996        0.0000000000000000     
  0.39283522999999998       0.25360379000000000        0.0000000000000000     
  0.74480864000000002       0.60495284999999999        0.0000000000000000     
  0.25505132000000003       0.60593640999999998        0.0000000000000000     
  0.52159297999999998       0.40671636000000000        0.0000000000000000     
  0.40768852000000000       0.47699891000000000        0.0000000000000000     
   9.1467049999999994E-002   9.1876959999999994E-002   0.0000000000000000     
  0.90842484999999995       0.90819225000000003        0.0000000000000000     
  0.90820104999999995        9.1566729999999999E-002   0.0000000000000000     
   9.1807449999999999E-002  0.90843574000000005        0.0000000000000000     
  0.27098960000000000       0.20527094000000001        0.0000000000000000     
  0.73457293999999995       0.79835387000000002        0.0000000000000000     
  0.79817773000000003       0.25713470999999999        0.0000000000000000     
  0.20747797000000001       0.72863946000000002        0.0000000000000000     
  0.20175195000000001       0.27583914999999998        0.0000000000000000     
  0.79603889000000005       0.72159035000000005        0.0000000000000000     
  0.71761666000000002       0.19748431999999999        0.0000000000000000     
  0.28462607000000001       0.80251899999999998        0.0000000000000000     
  0.69134598999999997       0.49261972999999998        0.0000000000000000     
  0.44720578999999999       0.58582935999999997        0.0000000000000000     
  0.24242269999999999       0.37228174000000003        0.0000000000000000     
  0.38265623999999998       0.93072131999999996        0.0000000000000000     
  0.60971754000000000       0.91988369000000003        0.0000000000000000     
   7.9163609999999995E-002  0.60979116000000000        0.0000000000000000     
  0.92010649000000000       0.61081183999999999        0.0000000000000000     
  0.61954008999999999        7.1530830000000004E-002   0.0000000000000000     
  0.91882012999999996       0.38917363999999999        0.0000000000000000     
  0.39086346000000000        8.0652249999999995E-002   0.0000000000000000     
   7.9183480000000001E-002  0.38966213000000000        0.0000000000000000     
  0.59114111999999996       0.49294315000000000        0.0000000000000000     
  0.63337980999999999       0.64485914000000000        0.0000000000000000     
  0.50012352000000004       0.29676539000000002        0.0000000000000000     
  0.82552601000000003       0.92753492000000004        0.0000000000000000     
  0.92774772999999999       0.82498556999999995        0.0000000000000000     
   7.1970870000000006E-002  0.17510291000000000        0.0000000000000000     
  0.17422821999999999        7.2635640000000001E-002   0.0000000000000000     
  0.82510813000000005        7.2134840000000006E-002   0.0000000000000000     
  0.92754665000000003       0.17446275999999999        0.0000000000000000     
  0.17501022999999999       0.92789951999999998        0.0000000000000000     
   7.2464680000000004E-002  0.82554053000000005        0.0000000000000000     
  0.30731587999999999       0.50885354999999999        0.0000000000000000     
  0.59033407999999998       0.22171178999999999        0.0000000000000000     
  0.40109191999999999       0.78725542000000004        0.0000000000000000     
  0.35420917000000002       0.63754104000000000        0.0000000000000000     
  0.15983976999999999       0.56665573000000002        0.0000000000000000     
  0.84108459999999996       0.56757886999999996        0.0000000000000000     
  0.83902096000000004       0.43344338999999998        0.0000000000000000     
  0.43230028999999998       0.16004268999999999        0.0000000000000000     
  0.57536027999999995       0.83041363999999995        0.0000000000000000     
  0.15771898000000001       0.42747892999999998        0.0000000000000000     
  0.34021692999999997       0.34221559000000001        0.0000000000000000     
  0.56002271999999997       0.57501117999999996        0.0000000000000000     
  0.65344329000000001       0.78147597999999996        0.0000000000000000     
   0.0000000000000000        0.0000000000000000        0.0000000000000000     
   1.0000000000000000        0.0000000000000000        0.0000000000000000     
   1.0000000000000000        1.0000000000000000        0.0000000000000000     
   0.0000000000000000        1.0000000000000000        0.0000000000000000     
  0.11111111000000000        0.0000000000000000        0.0000000000000000     
  0.22222222000000000        0.0000000000000000        0.0000000000000000     
  0.33333332999999998        0.0000000000000000        0.0000000000000000     
  0.44444444000000000        0.0000000000000000        0.0000000000000000     
  0.55555555999999995        0.0000000000000000        0.0000000000000000     
  0.66666667000000002        0.0000000000000000        0.0000000000000000     
  0.77777777999999997        0.0000000000000000        0.0000000000000000     
  0.88888889000000004        0.0000000000000000        0.0000000000000000     
   1.0000000000000000       0.11111111000000000        0.0000000000000000     
   1.0000000000000000       0.22222222000000000        0.0000000000000000     
   1.0000000000000000       0.33333332999999998        0.0000000000000000     
   1.0000000000000000       0.44444444000000000        0.0000000000000000     
   1.0000000000000000       0.55555555999999995        0.0000000000000000     
   1.0000000000000000       0.66666667000000002        0.0000000000000000     
   1.0000000000000000       0.77777777999999997        0.0000000000000000     
   1.0000000000000000       0.88888889000000004        0.0000000000000000     
  0.88888889000000004        1.0000000000000000        0.0000000000000000     
  0.77777777999999997        1.0000000000000000        0.0000000000000000     
  0.66666667000000002        1.0000000000000000        0.0000000000000000     
  0.55555555999999995        1.0000000000000000        0.0000000000000000     
  0.44444444000000000        1.0000000000000000        0.0000000000000000     
  0.33333332999999998        1.0000000000000000        0.0000000000000000     
  0.22222222000000000        1.0000000000000000        0.0000000000000000     
  0.11111111000000000        1.0000000000000000        0.0000000000000000     
   0.0000000000000000       0.11111111000000000        0.0000000000000000     
   0.0000000000000000       0.22222222000000000        0.0000000000000000     
[...]
 CELL_DATA         354
 SCALARS V float
 LOOKUP_TABLE default
    0.30853880623598742283E-01
    0.40785129068191754154E-01
    0.22328352015811254311E-01
    0.18624139229755795610E-01
    0.33611327472353992596E-01
    0.36269347751002163627E-01
    0.43317216532973740195E-01
    0.39492534967540106339E-01
    0.46983189469547291528E-01
    0.50857812114684465554E-01
    0.58528849383397189843E-01
    0.54341562972127319120E-01
    0.60169267540565132824E-01
    0.59184622702720374177E-01
    0.56940251275614944815E-01
    0.58296706161859036810E-01
    0.54237109754635304260E-01
    0.50201473279981263798E-01
    0.43971706084089984268E-01
    0.46853172021450485707E-01
    0.42664440561607779034E-01
    0.43882937913547914732E-01
    0.47127571203481669060E-01
    0.45333920245598569032E-01
    0.47494713099303850767E-01
    0.46475741011618221243E-01
    0.43927254808750558490E-01
    0.45357227403676488031E-01
    0.41823430573724548753E-01
    0.38796845535235914559E-01
    0.33566405510931790479E-01
    0.36225136036281246898E-01
    0.30997433166634294488E-01
    0.28284211857855227901E-01
    0.24230236306945616975E-01
    0.26043112039872660934E-01
    0.23246948457610584760E-01
    0.23875327383552087668E-01
    0.25945316149252575094E-01
    0.24753097317370641867E-01
    0.26560150387106570141E-01
    0.26679208524374595224E-01
    0.27203390332274510893E-01
    0.26855561478846344536E-01
    0.26796287650598899638E-01
    0.25511809800841014906E-01
    0.24148247054659746635E-01
    0.24720874025231064086E-01
    0.23137471260241536386E-01
    0.21676443028904708588E-01
    0.19678942492067495740E-01
    0.20545586809048652088E-01
    0.31870927519296057828E-01
    0.32404098019429353195E-01
    0.34302757837349304171E-01
    0.33193409217268529665E-01
    0.34496087765969025984E-01
    0.33810249854819354742E-01
    0.32619988404237736102E-01
    0.33222887163569171654E-01
    0.31451690215201617840E-01
    0.29594369581689088100E-01
    0.26408833726569741485E-01
    0.28031666283722084243E-01
    0.24718941417107884173E-01
    0.22793360551457558794E-01
    0.19991822354016211549E-01
    0.21233334535082512562E-01
    0.70507475029854646542E-01
    0.63446072927839811118E-01
    0.59156597690155035552E-01
    0.66782808216523242839E-01
    0.61185651521449953283E-01
    0.61161423119149266325E-01
    0.54716662407174390670E-01
    0.51449626669796952316E-01
    0.53273259473528469798E-01
    0.58823580811635821364E-01
    0.42558595266742035856E-01
    0.45879502150005677108E-01
    0.38695144955479168769E-01
    0.40885271012424714843E-01
    0.46120654799284434289E-01
    0.39850596889629871789E-01
    0.68634651421355594159E-01
    0.79854118014777736301E-01
    0.87677295819135414590E-01
    0.72591367472715037645E-01
    0.70346306461304977664E-01
    0.75330643023120147372E-01
    0.83576551999151274530E-01
    0.40015370874318084704E-01
    0.39019629135365822836E-01
    0.34945266435503816171E-01
    0.34191865830981042762E-01
    0.36502680828511387123E-01
    0.41059553831623261944E-01
    0.51457953604327408281E-01
    0.61398599343622808910E-01
    0.53533840468703325355E-01
    0.59897730773073531996E-01
    0.51207783647986088171E-01
    0.56118568428612666810E-01
    0.72959434333746339685E-01
    0.73609354065558046942E-01
    0.81468493013070839015E-01
    0.81417523878322947684E-01
    0.71550954781200326593E-01
    0.43184377776890547906E-01
    0.40757307362522227079E-01
    0.34326434542428049812E-01
    0.40472816068024899949E-01
    0.36807481112746870400E-01
    0.36418707099601314858E-01
    0.50218942600678800892E-01
    0.39506679904476774134E-01
    0.42760515389574003942E-01
    0.47432402567153808537E-01
    0.47437475459408309786E-01
    0.40126910652244870970E-01
    0.42725068692131232262E-01
    0.30021398342177686713E-01
    0.32703715968617888543E-01
    0.27827571988459101626E-01
    0.33172756828473190516E-01
    0.34788986081982359311E-01
    0.28188172718098591929E-01
    0.29629773158502917263E-01
    0.40238255994681421113E-01
    0.45012683904851268080E-01
    0.38115793609705239664E-01
    0.47235753808170452550E-01
    0.44599486658683448748E-01
    0.38205020998981972791E-01
    0.40814717016829302199E-01
    0.54908169011746561783E-01
    0.59128455509625532649E-01
    0.51015526547360474929E-01
    0.60725425168250073138E-01
    0.63678162572035887368E-01
    0.53926908395501321758E-01
    0.51785302871116101198E-01
    0.26891306370822369576E-01
    0.26080729981319744626E-01
    0.23386531349396087048E-01
    0.29111417656834420731E-01
    0.28662592532929721811E-01
    0.24101832259954839022E-01
    0.24553234176907613728E-01
    0.63365559558499665038E-01
    0.70486823122613839754E-01
    0.74954800228019410890E-01
    0.66444736565500067682E-01
    0.77824819715701598621E-01
    0.65754185900681272336E-01
    0.54581630983857334916E-01
    0.60825667400263114248E-01
    0.62783432281892148641E-01
    0.54009184643521820912E-01
    0.58086042522794534282E-01
    0.45735847136758843445E-01
    0.54870852110872371521E-01
    0.51826411399935400082E-01
    0.50212939911804088666E-01
    0.47166222360459184038E-01
    0.31158519093597757121E-01
    0.34003905169480028170E-01
    0.31110869924914519302E-01
    0.33750624991190435187E-01
    0.35343153969429302874E-01
    0.53141141801050319204E-01
    0.62603686315517881322E-01
    0.55730726085009445192E-01
    0.57158808131556895771E-01
    0.62462803807918784726E-01
    0.40415828614725930745E-01
    0.44519831952854041490E-01
    0.45877277847270449274E-01
    0.39328956650920933458E-01
    0.42038549456266866011E-01
    0.64333367610124675418E-01
    0.56458264199223118229E-01
    0.62686285870448776869E-01
    0.54822479387762683423E-01
    0.58123648019119955599E-01
    0.38267588457967322002E-01
    0.45494411107186133458E-01
    0.40627893259429323503E-01
    0.40860151799164932951E-01
    0.44725071136602539967E-01
    0.70280148899466154955E-01
    0.66344996425776014970E-01
    0.71859620489965553292E-01
    0.66946730959827116525E-01
    0.77231981835129623337E-01
    0.30594832004919997326E-01
    0.36734128701820703555E-01
    0.32988327189092947478E-01
    0.32128441624569119284E-01
    0.35311135216560859962E-01
    0.30353322830703150653E-01
    0.28171621611525983486E-01
    0.30697686230490392467E-01
    0.28400900492648137319E-01
    0.32495005871578594436E-01
    0.86755570958278016569E-01
    0.73172757130261542602E-01
    0.79858920203538269478E-01
    0.70993097330300430903E-01
    0.73442565309819546338E-01
    0.45560826839649085085E-01
    0.45081675196950235507E-01
    0.50751140966546273714E-01
    0.49253497136927698596E-01
    0.52818823188880280328E-01
    0.59133615623733079558E-01
    0.53198011526512420377E-01
    0.53236313401416546220E-01
    0.59201473940990317901E-01
    0.87320637261903200077E-01
    0.91122668530435518841E-01
    0.91504958665608510104E-01
    0.47684919808260645135E-01
    0.38873495938442290121E-01
    0.43815522702495515728E-01
    0.28178677943825100605E-01
    0.29528376973748847456E-01
    0.33016095691977352666E-01
    0.32552580469645535366E-01
    0.32898268049240814159E-01
    0.35702540362812167085E-01
    0.36270835894331429627E-01
    0.38570489862053733421E-01
    0.43137769574302028963E-01
    0.48318589554087777727E-01
    0.47226300162383008652E-01
    0.51604426730045831195E-01
    0.64759904601152884496E-01
    0.61008733093519423862E-01
    0.76017957305056976791E-01
    0.66767919946340431592E-01
    0.45915431012002086431E-01
    0.38337291391676513175E-01
    0.39741092326828764136E-01
    0.66088396841886179467E-01
    0.60986535160381910581E-01
    0.32037971954178443013E-01
    0.28889921853633315774E-01
    0.27382767431399092362E-01
    0.42419890858082315299E-01
    0.37086454109979224980E-01
    0.36590872977539309896E-01
    0.50028681237499671164E-01
    0.51893552524643962731E-01
    0.43026979542111640220E-01
    0.58373194459383222210E-01
    0.51198878018670748724E-01
    0.50063621746435943427E-01
    0.36454731099887421886E-01
    0.37053164957064343987E-01
    0.30961506977448614852E-01
    0.65583006860317177855E-01
    0.62004726295219837751E-01
    0.55363746508466364638E-01
    0.29751032323641755928E-01
    0.29155980687844480770E-01
    0.25102773712185257049E-01
    0.28420363577736747901E-01
    0.26282725925773513243E-01
    0.23994298140632128180E-01
    0.59634526821892207271E-01
    0.76495716859883350347E-01
    0.67654358696619398827E-01
    0.64754895791238803460E-01
    0.43961840459538263637E-01
    0.57044229221218822889E-01
    0.50043331734418494694E-01
    0.48805764490220046592E-01
    0.36315667683335384197E-01
    0.45855404642188513087E-01
    0.42862570549586337387E-01
    0.38958314269381802419E-01
    0.69539509316809411388E-01
    0.73368113557286437909E-01
    0.83038122400330705020E-01
    0.57268014078266440969E-01
    0.55260475830887910431E-01
    0.34982274696846421547E-01
    0.37076641396586243471E-01
    0.25636449528708030871E-01
    0.26799833444113345393E-01
    0.48734772056643178850E-01
    0.47076300440379484358E-01
    0.21797927789033572782E-01
    0.22165683614568117143E-01
    0.49551695735337270010E-01
    0.36925632839213511083E-01
    0.36693807378706505551E-01
    0.67700754380469851945E-01
    0.31647071708199331352E-01
    0.48663895259407508043E-01
    0.78427872943199430922E-01
    0.33404889638895728099E-01
    0.66596229621182806424E-01
    0.48394384777345936244E-01
    0.55723888746104170699E-01
    0.45338197440880440015E-01
    0.55866781411830844506E-01
    0.31728858744239342438E-01
    0.33945191261694145080E-01
    0.43712608597324231763E-01
    0.52899298704177172281E-01
    0.61582949141885515165E-01
    0.38770438756175654160E-01
    0.62636618084749795532E-01
    0.53674391057253016679E-01
    0.87597710933583747273E-01
    0.36423299604612185965E-01
    0.30331659759701340429E-01
    0.28815416201026639725E-01
    0.39504957322617197113E-01
    0.38384087394017572803E-01
    0.21815600397453192849E-01
    0.20954668632811344203E-01
    0.17674116560792527131E-01
    0.17948730243666537881E-01
    0.36352637138153863494E-01
    0.43089209584316348622E-01
    0.49509434437032880105E-01
    0.54384048953933512849E-01
    0.54959734785968938908E-01
    0.51971279300409400914E-01
    0.45993845851490175458E-01
    0.41754040744206140368E-01
    0.43615140889785138090E-01
    0.42747009871628854905E-01
    0.39908234271440509722E-01
    0.35498419718903190256E-01
    0.30725935041677192305E-01
    0.25986915671216803680E-01
    0.22788260450223973841E-01
    0.24285308206754178256E-01
    0.24886511741495698224E-01
    0.24802025429955531360E-01
    0.23629209817299146740E-01
    0.22048653146674115216E-01
    0.19880393961601777048E-01
    0.30687406035682929240E-01
    0.31727908266738581722E-01
    0.31229367817663673812E-01
    0.29697149197320877462E-01
    0.27089769682813048812E-01
    0.24101608904223807001E-01
    0.20899922677899654411E-01
