# vtk DataFile Version 3.0
LAPLACIEN  2D
ASCII
DATASET UNSTRUCTURED_GRID
 POINTS         391  float
  0.50371505999999999       0.50367786999999997        0.0000000000000000     
  0.29013556000000001       0.29014535000000002        0.0000000000000000     
  0.70165584999999997       0.71206597999999999        0.0000000000000000     
  0.70304188999999995       0.30176619999999998        0.0000000000000000     
  0.30920671999999999       0.71149227999999998        0.0000000000000000     
  0.79044983999999996       0.49884783999999999        0.0000000000000000     
  0.49102621000000002       0.20968644000000000        0.0000000000000000     
  0.49912957000000002       0.77208717000000004        0.0000000000000000     
  0.21724072999999999       0.48989389000000000        0.0000000000000000     
  0.83255933999999998       0.83046598000000005        0.0000000000000000     
  0.16646774000000000       0.17015694000000001        0.0000000000000000     
  0.83054514999999995       0.16736480000000001        0.0000000000000000     
  0.16953130999999999       0.83265739000000005        0.0000000000000000     
  0.42166445000000002       0.36345201999999999        0.0000000000000000     
  0.64462200999999997       0.56347807999999999        0.0000000000000000     
  0.35324633999999999       0.56311191000000005        0.0000000000000000     
  0.65456411000000003       0.84856860999999995        0.0000000000000000     
  0.35141477999999998       0.15563974000000000        0.0000000000000000     
  0.15290967000000000       0.35206625000000003        0.0000000000000000     
  0.82942241000000005       0.34936866000000000        0.0000000000000000     
  0.84390527000000004       0.64441694999999999        0.0000000000000000     
  0.63699174999999997       0.14284276000000001        0.0000000000000000     
  0.15620682999999999       0.64648446999999998        0.0000000000000000     
  0.36426062999999997       0.85756310999999996        0.0000000000000000     
  0.63489340999999999       0.40519052000000000        0.0000000000000000     
  0.52518872999999999       0.65957078000000002        0.0000000000000000     
  0.32158959999999998       0.42298103999999997        0.0000000000000000     
  0.58861710000000000       0.31711036999999997        0.0000000000000000     
  0.42078418000000001       0.69497151999999995        0.0000000000000000     
  0.48608786999999998       0.89334152000000000        0.0000000000000000     
   9.7084320000000002E-002  0.50000000000000000        0.0000000000000000     
  0.90291568000000000       0.50000000000000000        0.0000000000000000     
  0.51392453000000005       0.10668648999999999        0.0000000000000000     
  0.59792566999999996       0.73122754000000001        0.0000000000000000     
  0.74510058999999995       0.41124730999999998        0.0000000000000000     
  0.73212551999999997       0.90191560000000004        0.0000000000000000     
   9.7784830000000003E-002  0.26957329000000002        0.0000000000000000     
  0.26711221000000002        9.8671499999999995E-002   0.0000000000000000     
  0.90191560000000004       0.26787448000000003        0.0000000000000000     
  0.90118569000000004       0.73039821000000005        0.0000000000000000     
  0.73122947000000005        9.8017859999999998E-002   0.0000000000000000     
   9.8084400000000002E-002  0.73212551999999997        0.0000000000000000     
  0.26957329000000002       0.90221516999999996        0.0000000000000000     
  0.39283522999999998       0.25360379000000000        0.0000000000000000     
  0.74480864000000002       0.60495284999999999        0.0000000000000000     
  0.25505132000000003       0.60593640999999998        0.0000000000000000     
  0.52159297999999998       0.40671636000000000        0.0000000000000000     
  0.40768852000000000       0.47699891000000000        0.0000000000000000     
   9.1467049999999994E-002   9.1876959999999994E-002   0.0000000000000000     
  0.90842484999999995       0.90819225000000003        0.0000000000000000     
  0.90820104999999995        9.1566729999999999E-002   0.0000000000000000     
   9.1807449999999999E-002  0.90843574000000005        0.0000000000000000     
  0.27098960000000000       0.20527094000000001        0.0000000000000000     
  0.73457293999999995       0.79835387000000002        0.0000000000000000     
  0.79817773000000003       0.25713470999999999        0.0000000000000000     
  0.20747797000000001       0.72863946000000002        0.0000000000000000     
  0.20175195000000001       0.27583914999999998        0.0000000000000000     
  0.79603889000000005       0.72159035000000005        0.0000000000000000     
  0.71761666000000002       0.19748431999999999        0.0000000000000000     
  0.28462607000000001       0.80251899999999998        0.0000000000000000     
  0.69134598999999997       0.49261972999999998        0.0000000000000000     
  0.44720578999999999       0.58582935999999997        0.0000000000000000     
  0.24242269999999999       0.37228174000000003        0.0000000000000000     
  0.38265623999999998       0.93072131999999996        0.0000000000000000     
  0.60971754000000000       0.91988369000000003        0.0000000000000000     
   7.9163609999999995E-002  0.60979116000000000        0.0000000000000000     
  0.92010649000000000       0.61081183999999999        0.0000000000000000     
  0.61954008999999999        7.1530830000000004E-002   0.0000000000000000     
  0.91882012999999996       0.38917363999999999        0.0000000000000000     
  0.39086346000000000        8.0652249999999995E-002   0.0000000000000000     
   7.9183480000000001E-002  0.38966213000000000        0.0000000000000000     
  0.59114111999999996       0.49294315000000000        0.0000000000000000     
  0.63337980999999999       0.64485914000000000        0.0000000000000000     
  0.50012352000000004       0.29676539000000002        0.0000000000000000     
  0.82552601000000003       0.92753492000000004        0.0000000000000000     
  0.92774772999999999       0.82498556999999995        0.0000000000000000     
   7.1970870000000006E-002  0.17510291000000000        0.0000000000000000     
  0.17422821999999999        7.2635640000000001E-002   0.0000000000000000     
  0.82510813000000005        7.2134840000000006E-002   0.0000000000000000     
  0.92754665000000003       0.17446275999999999        0.0000000000000000     
  0.17501022999999999       0.92789951999999998        0.0000000000000000     
   7.2464680000000004E-002  0.82554053000000005        0.0000000000000000     
  0.30731587999999999       0.50885354999999999        0.0000000000000000     
  0.59033407999999998       0.22171178999999999        0.0000000000000000     
  0.40109191999999999       0.78725542000000004        0.0000000000000000     
  0.35420917000000002       0.63754104000000000        0.0000000000000000     
  0.15983976999999999       0.56665573000000002        0.0000000000000000     
  0.84108459999999996       0.56757886999999996        0.0000000000000000     
  0.83902096000000004       0.43344338999999998        0.0000000000000000     
  0.43230028999999998       0.16004268999999999        0.0000000000000000     
  0.57536027999999995       0.83041363999999995        0.0000000000000000     
  0.15771898000000001       0.42747892999999998        0.0000000000000000     
  0.34021692999999997       0.34221559000000001        0.0000000000000000     
  0.56002271999999997       0.57501117999999996        0.0000000000000000     
  0.65344329000000001       0.78147597999999996        0.0000000000000000     
   0.0000000000000000        0.0000000000000000        0.0000000000000000     
   1.0000000000000000        0.0000000000000000        0.0000000000000000     
   1.0000000000000000        1.0000000000000000        0.0000000000000000     
   0.0000000000000000        1.0000000000000000        0.0000000000000000     
  0.11111111000000000        0.0000000000000000        0.0000000000000000     
  0.22222222000000000        0.0000000000000000        0.0000000000000000     
  0.33333332999999998        0.0000000000000000        0.0000000000000000     
  0.44444444000000000        0.0000000000000000        0.0000000000000000     
  0.55555555999999995        0.0000000000000000        0.0000000000000000     
  0.66666667000000002        0.0000000000000000        0.0000000000000000     
  0.77777777999999997        0.0000000000000000        0.0000000000000000     
  0.88888889000000004        0.0000000000000000        0.0000000000000000     
   1.0000000000000000       0.11111111000000000        0.0000000000000000     
   1.0000000000000000       0.22222222000000000        0.0000000000000000     
   1.0000000000000000       0.33333332999999998        0.0000000000000000     
   1.0000000000000000       0.44444444000000000        0.0000000000000000     
   1.0000000000000000       0.55555555999999995        0.0000000000000000     
   1.0000000000000000       0.66666667000000002        0.0000000000000000     
   1.0000000000000000       0.77777777999999997        0.0000000000000000     
   1.0000000000000000       0.88888889000000004        0.0000000000000000     
  0.88888889000000004        1.0000000000000000        0.0000000000000000     
  0.77777777999999997        1.0000000000000000        0.0000000000000000     
  0.66666667000000002        1.0000000000000000        0.0000000000000000     
  0.55555555999999995        1.0000000000000000        0.0000000000000000     
  0.44444444000000000        1.0000000000000000        0.0000000000000000     
  0.33333332999999998        1.0000000000000000        0.0000000000000000     
  0.22222222000000000        1.0000000000000000        0.0000000000000000     
  0.11111111000000000        1.0000000000000000        0.0000000000000000     
   0.0000000000000000       0.11111111000000000        0.0000000000000000     
   0.0000000000000000       0.22222222000000000        0.0000000000000000     
[...]
 CELL_DATA         354
 SCALARS V float
 LOOKUP_TABLE default
    0.30853905318172822336E-01
    0.40785162064347221800E-01
    0.22328370481929881580E-01
    0.18624155215743211367E-01
    0.33611331405687241980E-01
    0.36269359170689609295E-01
    0.43317249443084834826E-01
    0.39492554992891330812E-01
    0.46983223434492245307E-01
    0.50857841991445169871E-01
    0.58528898168070497832E-01
    0.54341606729910126028E-01
    0.60169303021033841705E-01
    0.59184663752054174346E-01
    0.56940296400369405649E-01
    0.58296751943847618938E-01
    0.54237149574515364225E-01
    0.50201500638527039866E-01
    0.43971715983941735140E-01
    0.46853190338700105577E-01
    0.42664462335054137432E-01
    0.43882960973769570556E-01
    0.47127604957208663050E-01
    0.45333949832655193179E-01
    0.47494759763354897630E-01
    0.46475783490606908943E-01
    0.43927286057691784793E-01
    0.45357259610004668771E-01
    0.41823464574227503521E-01
    0.38796873990292149448E-01
    0.33566429469014606723E-01
    0.36225158285559805327E-01
    0.30997457928783878761E-01
    0.28284228227395132038E-01
    0.24230241312843778245E-01
    0.26043121554993737404E-01
    0.23246962802594185044E-01
    0.23875341190218286880E-01
    0.25945337773123529346E-01
    0.24753115398301370198E-01
    0.26560178948794040121E-01
    0.26679234463450534481E-01
    0.27203419743042377144E-01
    0.26855586996254399157E-01
    0.26796312353287360386E-01
    0.25511831621728212754E-01
    0.24148270541270312750E-01
    0.24720897573895769805E-01
    0.23137491485855660872E-01
    0.21676458655269775083E-01
    0.19678952552590243952E-01
    0.20545597835322986641E-01
    0.31870948543228416749E-01
    0.32404117051607818356E-01
    0.34302784746654088610E-01
    0.33193433461388505146E-01
    0.34496123583121200695E-01
    0.33810282194980299797E-01
    0.32620014813171692436E-01
    0.33222913083293517666E-01
    0.31451718031116911167E-01
    0.29594393376371683907E-01
    0.26408857742819480396E-01
    0.28031688025972091582E-01
    0.24718962474129361345E-01
    0.22793375196466431065E-01
    0.19991829209158085839E-01
    0.21233344090224447187E-01
    0.70507480298663022245E-01
    0.63446065597279166504E-01
    0.59156567680404822940E-01
    0.66782808419844075232E-01
    0.61185626816617752488E-01
    0.61161436526477028219E-01
    0.54716665041617526533E-01
    0.51449611927060698302E-01
    0.53273239755863732725E-01
    0.58823569440292308719E-01
    0.42558607473264002674E-01
    0.45879515657146430208E-01
    0.38695143866908317254E-01
    0.40885277041783962826E-01
    0.46120652831846797870E-01
    0.39850616981875586209E-01
    0.68634641601692913948E-01
    0.79854059663365367649E-01
    0.87677104915438314192E-01
    0.72591358073798822881E-01
    0.70346292186902845134E-01
    0.75330645913515653644E-01
    0.83576452058918143662E-01
    0.40015352874404316874E-01
    0.39019620894324043292E-01
    0.34945264454637164908E-01
    0.34191867009226058205E-01
    0.36502679306013585681E-01
    0.41059532337162057969E-01
    0.51457942812001902788E-01
    0.61398599948382523439E-01
    0.53533840516267985898E-01
    0.59897714052317085898E-01
    0.51207802663413432009E-01
    0.56118555215685303472E-01
    0.72959403051728030642E-01
    0.73609318694464034860E-01
    0.81468466895481816969E-01
    0.81417504442721819191E-01
    0.71550953607825831804E-01
    0.43184373858316374428E-01
    0.40757312185532496018E-01
    0.34326417790232821581E-01
    0.40472819465247535098E-01
    0.36807473413439345533E-01
    0.36418709845334018560E-01
    0.50218921184105064226E-01
    0.39506674849110107184E-01
    0.42760514112457327640E-01
    0.47432407816058098915E-01
    0.47437458500899573610E-01
    0.40126931234789761649E-01
    0.42725079060797511998E-01
    0.30021402560420573646E-01
    0.32703722222914413664E-01
    0.27827576722805093257E-01
    0.33172746628140473146E-01
    0.34788978906483608577E-01
    0.28188189854726271311E-01
    0.29629786186879426835E-01
    0.40238264795783587613E-01
    0.45012689386511477163E-01
    0.38115799693463917053E-01
    0.47235736922700277685E-01
    0.44599475507233220239E-01
    0.38205039773823161464E-01
    0.40814733902922825659E-01
    0.54908166973114139187E-01
    0.59128457957887500807E-01
    0.51015530295771188696E-01
    0.60725398456173536321E-01
    0.63678139149673296249E-01
    0.53926929263624960587E-01
    0.51785328918896894601E-01
    0.26891313781121545939E-01
    0.26080738587635418635E-01
    0.23386536173417703244E-01
    0.29111411089517588019E-01
    0.28662588204265773695E-01
    0.24101845984334260148E-01
    0.24553248184480035154E-01
    0.63365560817667573867E-01
    0.70486817505924656557E-01
    0.74954768519852707498E-01
    0.66444723216938408883E-01
    0.77824785479225389029E-01
    0.65754194082186898096E-01
    0.54581599835867224135E-01
    0.60825658130092191689E-01
    0.62783439335845264706E-01
    0.54009161954649470561E-01
    0.58086029271729205936E-01
    0.45735819800647281586E-01
    0.54870874319265711128E-01
    0.51826420385786109435E-01
    0.50212932580752378531E-01
    0.47166215299352200196E-01
    0.31158501823830057897E-01
    0.34003897041190167538E-01
    0.31110848853362845640E-01
    0.33750628819979977546E-01
    0.35343154483707270308E-01
    0.53141106878178585859E-01
    0.62603680321998075864E-01
    0.55730715961108727441E-01
    0.57158774740829088046E-01
    0.62462799272844475584E-01
    0.40415808610260534062E-01
    0.44519834292917052909E-01
    0.45877290232133396963E-01
    0.39328934738790399805E-01
    0.42038550103600871855E-01
    0.64333373352604056317E-01
    0.56458240941174929473E-01
    0.62686277978086221707E-01
    0.54822455551261653484E-01
    0.58123650291649009425E-01
    0.38267566696480195820E-01
    0.45494418550215465213E-01
    0.40627893498315525989E-01
    0.40860132563308101949E-01
    0.44725074965151823125E-01
    0.70280147305242998690E-01
    0.66344961568417626374E-01
    0.71859614065495389101E-01
    0.66946733877044195538E-01
    0.77231944051546902452E-01
    0.30594815743327865437E-01
    0.36734139228952494838E-01
    0.32988332299197786757E-01
    0.32128425967123008800E-01
    0.35311139054028960194E-01
    0.30353341356063059941E-01
    0.28171611719416494307E-01
    0.30697694366930261545E-01
    0.28400907603369447696E-01
    0.32495017214495679203E-01
    0.86755448286078701292E-01
    0.73172756424248946994E-01
    0.79858873447297321069E-01
    0.70993081764509982645E-01
    0.73442552471572386530E-01
    0.45560821556451469583E-01
    0.45081679871290261663E-01
    0.50751141985825552749E-01
    0.49253492894977754513E-01
    0.52818817987662254609E-01
    0.59133622792469878182E-01
    0.53197987086969503179E-01
    0.53236310032669820202E-01
    0.59201461787977263662E-01
    0.87320499877546628453E-01
    0.91122453061908512129E-01
    0.91504701440037680693E-01
    0.47684922975064145123E-01
    0.38873496871088555893E-01
    0.43815519394031873790E-01
    0.28178696701592526735E-01
    0.29528373028300535647E-01
    0.33016084410996703047E-01
    0.32552568563091646703E-01
    0.32898263640651320694E-01
    0.35702531069953968856E-01
    0.36270835472193008187E-01
    0.38570467607928218823E-01
    0.43137763101479313643E-01
    0.48318575295962611083E-01
    0.47226297789316022679E-01
    0.51604392981308401522E-01
    0.64759933028142119271E-01
    0.61008715960433328174E-01
    0.76017887608570436364E-01
    0.66767891642525778462E-01
    0.45915429460003744089E-01
    0.38337291756854158242E-01
    0.39741105404993329331E-01
    0.66088390302903407547E-01
    0.60986552206262707732E-01
    0.32037963164642177527E-01
    0.28889910452954237902E-01
    0.27382781060271452894E-01
    0.42419881687702734596E-01
    0.37086445271168819171E-01
    0.36590886894856448908E-01
    0.50028664541340556182E-01
    0.51893523327238344489E-01
    0.43027000309236923536E-01
    0.58373162401779879471E-01
    0.51198872942283910059E-01
    0.50063641818481746659E-01
    0.36454720601268392199E-01
    0.37053147552747987825E-01
    0.30961524291478366433E-01
    0.65582979042893702060E-01
    0.62004700099470261287E-01
    0.55363770684994657867E-01
    0.29751025294228142237E-01
    0.29155969387222611944E-01
    0.25102788296818195901E-01
    0.28420360120353465455E-01
    0.26282720342238431038E-01
    0.23994311608952649528E-01
    0.59634534443727238440E-01
    0.76495656051863619718E-01
    0.67654357043545415573E-01
    0.64754910468357074205E-01
    0.43961851452234870785E-01
    0.57044200977939010788E-01
    0.50043323945807356712E-01
    0.48805778224769738594E-01
    0.36315676473865805829E-01
    0.45855370479276472140E-01
    0.42862554338804551013E-01
    0.38958330697327465952E-01
    0.69539489570313764433E-01
    0.73368116084928436393E-01
    0.83038038307531009119E-01
    0.57268011188957107516E-01
    0.55260490440719553518E-01
    0.34982276896147482259E-01
    0.37076641342516716837E-01
    0.25636451914790719941E-01
    0.26799833665158021012E-01
    0.48734768200263262061E-01
    0.47076300117503570852E-01
    0.21797929323764762138E-01
    0.22165685008273587620E-01
    0.49551679755222954871E-01
    0.36925628627808543269E-01
    0.36693800764339298826E-01
    0.67700738212394195870E-01
    0.31647066672588174130E-01
    0.48663895817199570581E-01
    0.78427883390340041858E-01
    0.33404902861856045071E-01
    0.66596227251352557719E-01
    0.48394393648710190559E-01
    0.55723875442958897830E-01
    0.45338225106925165997E-01
    0.55866761647850086969E-01
    0.31728845958907743452E-01
    0.33945182386244901473E-01
    0.43712597401966896138E-01
    0.52899276004425691000E-01
    0.61582918964044941479E-01
    0.38770423062749033438E-01
    0.62636609390887568183E-01
    0.53674370412083456661E-01
    0.87597597222429129937E-01
    0.36423300443157592687E-01
    0.30331671915108049387E-01
    0.28815449497708096882E-01
    0.39504980914595227981E-01
    0.38384126349067640427E-01
    0.21815611195826714597E-01
    0.20954691576930157410E-01
    0.17674133085749030997E-01
    0.17948742912311264897E-01
    0.36352657263762126749E-01
    0.43089254037562169097E-01
    0.49509485530552829746E-01
    0.54384108933766460436E-01
    0.54959801413984543661E-01
    0.51971340221227194101E-01
    0.45993881098161909504E-01
    0.41754085512084114507E-01
    0.43615195879171460291E-01
    0.42747062508442616735E-01
    0.39908279993078880910E-01
    0.35498456293659878813E-01
    0.30725966525033496235E-01
    0.25986931456086267284E-01
    0.22788285337713182210E-01
    0.24285340589681871787E-01
    0.24886544989159778418E-01
    0.24802059895489197983E-01
    0.23629240149064464904E-01
    0.22048681342005306549E-01
    0.19880413221037344235E-01
    0.30687441107631569653E-01
    0.31727949492537488307E-01
    0.31229407770074348732E-01
    0.29697185726541005385E-01
    0.27089800740543158730E-01
    0.24101637406187360196E-01
    0.20899939112137826125E-01
