# vtk DataFile Version 3.0
LAPLACIEN  2D
ASCII
DATASET UNSTRUCTURED_GRID
 POINTS         391  float
  0.50371505999999999       0.50367786999999997        0.0000000000000000     
  0.29013556000000001       0.29014535000000002        0.0000000000000000     
  0.70165584999999997       0.71206597999999999        0.0000000000000000     
  0.70304188999999995       0.30176619999999998        0.0000000000000000     
  0.30920671999999999       0.71149227999999998        0.0000000000000000     
  0.79044983999999996       0.49884783999999999        0.0000000000000000     
  0.49102621000000002       0.20968644000000000        0.0000000000000000     
  0.49912957000000002       0.77208717000000004        0.0000000000000000     
  0.21724072999999999       0.48989389000000000        0.0000000000000000     
  0.83255933999999998       0.83046598000000005        0.0000000000000000     
  0.16646774000000000       0.17015694000000001        0.0000000000000000     
  0.83054514999999995       0.16736480000000001        0.0000000000000000     
  0.16953130999999999       0.83265739000000005        0.0000000000000000     
  0.42166445000000002       0.36345201999999999        0.0000000000000000     
  0.64462200999999997       0.56347807999999999        0.0000000000000000     
  0.35324633999999999       0.56311191000000005        0.0000000000000000     
  0.65456411000000003       0.84856860999999995        0.0000000000000000     
  0.35141477999999998       0.15563974000000000        0.0000000000000000     
  0.15290967000000000       0.35206625000000003        0.0000000000000000     
  0.82942241000000005       0.34936866000000000        0.0000000000000000     
  0.84390527000000004       0.64441694999999999        0.0000000000000000     
  0.63699174999999997       0.14284276000000001        0.0000000000000000     
  0.15620682999999999       0.64648446999999998        0.0000000000000000     
  0.36426062999999997       0.85756310999999996        0.0000000000000000     
  0.63489340999999999       0.40519052000000000        0.0000000000000000     
  0.52518872999999999       0.65957078000000002        0.0000000000000000     
  0.32158959999999998       0.42298103999999997        0.0000000000000000     
  0.58861710000000000       0.31711036999999997        0.0000000000000000     
  0.42078418000000001       0.69497151999999995        0.0000000000000000     
  0.48608786999999998       0.89334152000000000        0.0000000000000000     
   9.7084320000000002E-002  0.50000000000000000        0.0000000000000000     
  0.90291568000000000       0.50000000000000000        0.0000000000000000     
  0.51392453000000005       0.10668648999999999        0.0000000000000000     
  0.59792566999999996       0.73122754000000001        0.0000000000000000     
  0.74510058999999995       0.41124730999999998        0.0000000000000000     
  0.73212551999999997       0.90191560000000004        0.0000000000000000     
   9.7784830000000003E-002  0.26957329000000002        0.0000000000000000     
  0.26711221000000002        9.8671499999999995E-002   0.0000000000000000     
  0.90191560000000004       0.26787448000000003        0.0000000000000000     
  0.90118569000000004       0.73039821000000005        0.0000000000000000     
  0.73122947000000005        9.8017859999999998E-002   0.0000000000000000     
   9.8084400000000002E-002  0.73212551999999997        0.0000000000000000     
  0.26957329000000002       0.90221516999999996        0.0000000000000000     
  0.39283522999999998       0.25360379000000000        0.0000000000000000     
  0.74480864000000002       0.60495284999999999        0.0000000000000000     
  0.25505132000000003       0.60593640999999998        0.0000000000000000     
  0.52159297999999998       0.40671636000000000        0.0000000000000000     
  0.40768852000000000       0.47699891000000000        0.0000000000000000     
   9.1467049999999994E-002   9.1876959999999994E-002   0.0000000000000000     
  0.90842484999999995       0.90819225000000003        0.0000000000000000     
  0.90820104999999995        9.1566729999999999E-002   0.0000000000000000     
   9.1807449999999999E-002  0.90843574000000005        0.0000000000000000     
  0.27098960000000000       0.20527094000000001        0.0000000000000000     
  0.73457293999999995       0.79835387000000002        0.0000000000000000     
  0.79817773000000003       0.25713470999999999        0.0000000000000000     
  0.20747797000000001       0.72863946000000002        0.0000000000000000     
  0.20175195000000001       0.27583914999999998        0.0000000000000000     
  0.79603889000000005       0.72159035000000005        0.0000000000000000     
  0.71761666000000002       0.19748431999999999        0.0000000000000000     
  0.28462607000000001       0.80251899999999998        0.0000000000000000     
  0.69134598999999997       0.49261972999999998        0.0000000000000000     
  0.44720578999999999       0.58582935999999997        0.0000000000000000     
  0.24242269999999999       0.37228174000000003        0.0000000000000000     
  0.38265623999999998       0.93072131999999996        0.0000000000000000     
  0.60971754000000000       0.91988369000000003        0.0000000000000000     
   7.9163609999999995E-002  0.60979116000000000        0.0000000000000000     
  0.92010649000000000       0.61081183999999999        0.0000000000000000     
  0.61954008999999999        7.1530830000000004E-002   0.0000000000000000     
  0.91882012999999996       0.38917363999999999        0.0000000000000000     
  0.39086346000000000        8.0652249999999995E-002   0.0000000000000000     
   7.9183480000000001E-002  0.38966213000000000        0.0000000000000000     
  0.59114111999999996       0.49294315000000000        0.0000000000000000     
  0.63337980999999999       0.64485914000000000        0.0000000000000000     
  0.50012352000000004       0.29676539000000002        0.0000000000000000     
  0.82552601000000003       0.92753492000000004        0.0000000000000000     
  0.92774772999999999       0.82498556999999995        0.0000000000000000     
   7.1970870000000006E-002  0.17510291000000000        0.0000000000000000     
  0.17422821999999999        7.2635640000000001E-002   0.0000000000000000     
  0.82510813000000005        7.2134840000000006E-002   0.0000000000000000     
  0.92754665000000003       0.17446275999999999        0.0000000000000000     
  0.17501022999999999       0.92789951999999998        0.0000000000000000     
   7.2464680000000004E-002  0.82554053000000005        0.0000000000000000     
  0.30731587999999999       0.50885354999999999        0.0000000000000000     
  0.59033407999999998       0.22171178999999999        0.0000000000000000     
  0.40109191999999999       0.78725542000000004        0.0000000000000000     
  0.35420917000000002       0.63754104000000000        0.0000000000000000     
  0.15983976999999999       0.56665573000000002        0.0000000000000000     
  0.84108459999999996       0.56757886999999996        0.0000000000000000     
  0.83902096000000004       0.43344338999999998        0.0000000000000000     
  0.43230028999999998       0.16004268999999999        0.0000000000000000     
  0.57536027999999995       0.83041363999999995        0.0000000000000000     
  0.15771898000000001       0.42747892999999998        0.0000000000000000     
  0.34021692999999997       0.34221559000000001        0.0000000000000000     
  0.56002271999999997       0.57501117999999996        0.0000000000000000     
  0.65344329000000001       0.78147597999999996        0.0000000000000000     
   0.0000000000000000        0.0000000000000000        0.0000000000000000     
   1.0000000000000000        0.0000000000000000        0.0000000000000000     
   1.0000000000000000        1.0000000000000000        0.0000000000000000     
   0.0000000000000000        1.0000000000000000        0.0000000000000000     
  0.11111111000000000        0.0000000000000000        0.0000000000000000     
  0.22222222000000000        0.0000000000000000        0.0000000000000000     
  0.33333332999999998        0.0000000000000000        0.0000000000000000     
  0.44444444000000000        0.0000000000000000        0.0000000000000000     
  0.55555555999999995        0.0000000000000000        0.0000000000000000     
  0.66666667000000002        0.0000000000000000        0.0000000000000000     
  0.77777777999999997        0.0000000000000000        0.0000000000000000     
  0.88888889000000004        0.0000000000000000        0.0000000000000000     
   1.0000000000000000       0.11111111000000000        0.0000000000000000     
   1.0000000000000000       0.22222222000000000        0.0000000000000000     
   1.0000000000000000       0.33333332999999998        0.0000000000000000     
   1.0000000000000000       0.44444444000000000        0.0000000000000000     
   1.0000000000000000       0.55555555999999995        0.0000000000000000     
   1.0000000000000000       0.66666667000000002        0.0000000000000000     
   1.0000000000000000       0.77777777999999997        0.0000000000000000     
   1.0000000000000000       0.88888889000000004        0.0000000000000000     
  0.88888889000000004        1.0000000000000000        0.0000000000000000     
  0.77777777999999997        1.0000000000000000        0.0000000000000000     
  0.66666667000000002        1.0000000000000000        0.0000000000000000     
  0.55555555999999995        1.0000000000000000        0.0000000000000000     
  0.44444444000000000        1.0000000000000000        0.0000000000000000     
  0.33333332999999998        1.0000000000000000        0.0000000000000000     
  0.22222222000000000        1.0000000000000000        0.0000000000000000     
  0.11111111000000000        1.0000000000000000        0.0000000000000000     
   0.0000000000000000       0.11111111000000000        0.0000000000000000     
   0.0000000000000000       0.22222222000000000        0.0000000000000000     
[...]
 CELL_DATA         354
 SCALARS V float
 LOOKUP_TABLE default
    0.19164558210996683607E-02
    0.61415994928458016860E-02
    0.14598002486011243083E-02
    0.14929957489865424911E-02
    0.22123734114186566387E-02
    0.26399856269058862186E-02
    0.96339993488711445080E-02
    0.57573330116036762483E-02
    0.11027203535398152207E-01
    0.11918758212199457441E-01
    0.13851099590457828861E-01
    0.13024279071739265287E-01
    0.14116779702179940367E-01
    0.14262539537273820345E-01
    0.13973280031346324223E-01
    0.14237451261308721115E-01
    0.13513601526371828154E-01
    0.12418205769073879102E-01
    0.88619627252670505474E-02
    0.11298963004448239061E-01
    0.77051286286591033972E-02
    0.92882893953697334005E-02
    0.10857674910081330927E-01
    0.99579811961144244770E-02
    0.10973678547241584244E-01
    0.10668358975756740345E-01
    0.79697670338155276321E-02
    0.99062491615872182160E-02
    0.59759331901307038287E-02
    0.42081577791504712685E-02
    0.21201115682120230503E-02
    0.24235539954441357065E-02
    0.19460948760551420502E-02
    0.17262826547055133176E-02
    0.15105929474014032597E-02
    0.16110130094168632377E-02
    0.14810468075380483349E-02
    0.14848665472014979227E-02
    0.15770385907364935837E-02
    0.15085790025722715154E-02
    0.15847260968856833468E-02
    0.15982253349169429132E-02
    0.16263330198615273420E-02
    0.16052310192687583960E-02
    0.16201837596817275471E-02
    0.15218556482730629612E-02
    0.14659198020854672610E-02
    0.14837844687099130403E-02
    0.14502802357805333073E-02
    0.14256775866161308652E-02
    0.14309740943841168462E-02
    0.14005438606198854397E-02
    0.19838928645821104525E-02
    0.20018253324652337741E-02
    0.21651503777598609529E-02
    0.20412446196225344890E-02
    0.21609476261656838415E-02
    0.21039129625298070431E-02
    0.20219292133448578397E-02
    0.20704996195445740138E-02
    0.19493615533249534968E-02
    0.17906126969063039522E-02
    0.15726080990777452188E-02
    0.16971496433232369228E-02
    0.15156849709116525064E-02
    0.14314747813521885335E-02
    0.13580049269075894231E-02
    0.13813050087261215942E-02
    0.14008990702241444493E-01
    0.13120888762563953645E-01
    0.12642382595779155796E-01
    0.13520556902307020314E-01
    0.12934266178874163564E-01
    0.13102397036029278521E-01
    0.11786273644457875842E-01
    0.10736893315902149015E-01
    0.11065852208718071625E-01
    0.12390231084147190765E-01
    0.82560132346252319835E-02
    0.97191861123781756598E-02
    0.36875139916927451855E-02
    0.66967504257741082563E-02
    0.10042584635299584006E-01
    0.48593285191307223486E-02
    0.13543933098976139104E-01
    0.14019671472921657607E-01
    0.12661838954982547814E-01
    0.13931253265662220733E-01
    0.13788273726202952135E-01
    0.14473685528783815368E-01
    0.13663602769902739170E-01
    0.51316212771500332307E-02
    0.47091349747023355729E-02
    0.25838188736350721497E-02
    0.24250754998812163420E-02
    0.27608956567508448690E-02
    0.67757406667008270723E-02
    0.10433216534181756485E-01
    0.12926543529483861678E-01
    0.11334743842446089873E-01
    0.12502797799238931503E-01
    0.10519402223686153547E-01
    0.11711792872472780169E-01
    0.14615064445173036115E-01
    0.14550631026639752538E-01
    0.14869259600311698910E-01
    0.14964411768929365004E-01
    0.14450404104983388329E-01
    0.83577274988892013424E-02
    0.64716221080750842634E-02
    0.25037059570662740550E-02
    0.61092420278268961403E-02
    0.32080025023360145275E-02
    0.30169783425506935606E-02
    0.10902371758052958189E-01
    0.43981170910630156337E-02
    0.81321908752294627676E-02
    0.10674191941763316177E-01
    0.10370614715683575124E-01
    0.46358719311289601356E-02
    0.82237437545860173072E-02
    0.19082445576988119572E-02
    0.21816419118587458519E-02
    0.17612352699679079387E-02
    0.23175909789896554161E-02
    0.25094589887713234996E-02
    0.17550595325373601324E-02
    0.18764796583617493562E-02
    0.52799596651765413197E-02
    0.94320543783100486979E-02
    0.32734387148821916802E-02
    0.10026473576358373510E-01
    0.86955304013907191996E-02
    0.28153790405833142851E-02
    0.64245300637942176492E-02
    0.11707021351736138226E-01
    0.13045108108305791123E-01
    0.11361002981202305423E-01
    0.12640762573230272109E-01
    0.13305004966442287792E-01
    0.12104728234987281732E-01
    0.11130451388503607296E-01
    0.16428039357814722479E-02
    0.15787325253816711194E-02
    0.14473251330738017180E-02
    0.18698244188609541329E-02
    0.18074765029707955729E-02
    0.14672578382446119834E-02
    0.14910440045168621079E-02
    0.13100550496890352517E-01
    0.13947768875868637312E-01
    0.14429763384304107598E-01
    0.13397985385465167874E-01
    0.14884924636859211966E-01
    0.13430733390095836097E-01
    0.11287690865609684154E-01
    0.12575727104202290979E-01
    0.13208645954176754730E-01
    0.11161611270716366093E-01
    0.12361647068302039285E-01
    0.98377291112330261802E-02
    0.12070618139221896137E-01
    0.11430913449877259588E-01
    0.10700041998471672075E-01
    0.10577972826264325779E-01
    0.20969697211910024934E-02
    0.24927792175183181161E-02
    0.21064700749779119437E-02
    0.24048574103901934444E-02
    0.26212273865430808090E-02
    0.11275123953957761486E-01
    0.13271175173055749924E-01
    0.11989758919612901120E-01
    0.12200754452392607169E-01
    0.13192662201194575722E-01
    0.55680170023417715000E-02
    0.89572117417336550443E-02
    0.99903080827616445869E-02
    0.42172006164066513575E-02
    0.76058380670275677060E-02
    0.13032885774993088063E-01
    0.11640391021453732820E-01
    0.12607666030985561351E-01
    0.11271355317820780373E-01
    0.12073675447543730233E-01
    0.33918956169441431478E-02
    0.96535565380365499777E-02
    0.63683690394921218386E-02
    0.59010953732268828578E-02
    0.91708856516727645103E-02
    0.14480677314396703942E-01
    0.14143469169214308023E-01
    0.14322723336870662320E-01
    0.14367396138814197276E-01
    0.15240869508887502221E-01
    0.20494366963840558553E-02
    0.27885088025390559162E-02
    0.22596660601622983386E-02
    0.22220568881278759607E-02
    0.25941545616412421855E-02
    0.18811751332468620163E-02
    0.17772533000801375106E-02
    0.19733255878203541898E-02
    0.17458188018599546300E-02
    0.21073760591415694604E-02
    0.13690393454753157360E-01
    0.14111900752960815364E-01
    0.14226464198014918128E-01
    0.13956734690417464673E-01
    0.14269661696030092393E-01
    0.95457313506657672647E-02
    0.92577109310565224021E-02
    0.10707042801920880343E-01
    0.10267376630324219836E-01
    0.11063754595467052699E-01
    0.12545203858624256327E-01
    0.11076700944197038351E-01
    0.11263308839810784803E-01
    0.12332066034435148344E-01
    0.13182855014942932576E-01
    0.11840518139517669516E-01
    0.11454419985504511736E-01
    0.10499328675541177297E-01
    0.35538271409246311935E-02
    0.90667415122062527955E-02
    0.17234597086246547168E-02
    0.18550847636747457362E-02
    0.22290490768130839794E-02
    0.22269090267431029644E-02
    0.22028133526318109843E-02
    0.24953755496954260935E-02
    0.27891199041841967590E-02
    0.41030622015433802774E-02
    0.74168676547175255848E-02
    0.97178626362299461855E-02
    0.94342175749980820842E-02
    0.10327077452264587371E-01
    0.14276648793355675715E-01
    0.13733937056594050508E-01
    0.15158700391784844796E-01
    0.13943523772958281784E-01
    0.99879501937818401802E-02
    0.33587713216262460141E-02
    0.47610135113983756069E-02
    0.13249514321681093651E-01
    0.12840418210422008954E-01
    0.21918870552734837087E-02
    0.18215373699966978024E-02
    0.16833312301820445821E-02
    0.73746640736463229399E-02
    0.28320327667864233709E-02
    0.25412405855683582907E-02
    0.10451866670933659953E-01
    0.11444734897577715088E-01
    0.85412185320201811090E-02
    0.12116144123128332749E-01
    0.11048334816213988691E-01
    0.11007369843373263074E-01
    0.29268280867892873705E-02
    0.28866310393680285479E-02
    0.19910137582004432122E-02
    0.13701677051893297599E-01
    0.14167051696417421944E-01
    0.13029354062592576891E-01
    0.19376136905417079385E-02
    0.18650461442691595310E-02
    0.15344963153489897534E-02
    0.17989659725014888695E-02
    0.16120461887051153443E-02
    0.14619683070738018378E-02
    0.12988954014376358215E-01
    0.14858392278959976426E-01
    0.13797631371330401628E-01
    0.13438221347565728128E-01
    0.89223910917130416776E-02
    0.11936951161911235619E-01
    0.10313854844873276279E-01
    0.10356422173314949742E-01
    0.27413629582911471817E-02
    0.98560176740876952878E-02
    0.84564221690138358101E-02
    0.43662194716971754194E-02
    0.13959124841472114048E-01
    0.14264767904004667376E-01
    0.14006246660560248835E-01
    0.12458520502159082383E-01
    0.12031879979852284912E-01
    0.23545931833991113127E-02
    0.31320615949229136700E-02
    0.15906622044171289058E-02
    0.16795968512063697096E-02
    0.11127472553167922290E-01
    0.10349842523872880562E-01
    0.13559198872504791677E-02
    0.13723225242670670804E-02
    0.10187519039409658611E-01
    0.32658958588330086123E-02
    0.30011150897587945269E-02
    0.13500057962901886033E-01
    0.21216239188869973065E-02
    0.10286151111126479868E-01
    0.15144675983379995293E-01
    0.22334993332997071791E-02
    0.13391002786253741741E-01
    0.10909102933475932351E-01
    0.11915460778951229154E-01
    0.10043077010677222208E-01
    0.11646346214770010932E-01
    0.21567318435876839215E-02
    0.23983319302537265544E-02
    0.84418138411123735954E-02
    0.10662743204244080550E-01
    0.13324545657928281439E-01
    0.39299941113529858819E-02
    0.13277707472320859211E-01
    0.11180966529911278567E-01
    0.12743322916080154078E-01
    0.28122610957069995447E-02
    0.18965913668197048082E-02
    0.16960841227672794618E-02
    0.46603303743284144739E-02
    0.39622510017381087563E-02
    0.14365990490286114582E-02
    0.14118290106748549589E-02
    0.15370568544386181351E-02
    0.14561212743415493688E-02
    0.25697134419198647964E-02
    0.66924201215963520506E-02
    0.74267580488592971344E-02
    0.82833064091976139898E-02
    0.85244787878947028692E-02
    0.81677714346828703129E-02
    0.73032303381552320792E-02
    0.59656434734960111371E-02
    0.69196159732035234652E-02
    0.65855519061742053694E-02
    0.44831571031258947435E-02
    0.22083241489125235955E-02
    0.18439741028708051505E-02
    0.15977417978760887277E-02
    0.14211829014218284577E-02
    0.14449410088099062972E-02
    0.14597448841649660837E-02
    0.14591429453495612968E-02
    0.14259879356620568189E-02
    0.14028312722231383453E-02
    0.14432041263163363116E-02
    0.17972723954309565743E-02
    0.18439710473026939015E-02
    0.18089377439827276830E-02
    0.17237063262007794751E-02
    0.15828054240712304511E-02
    0.14567388190604942978E-02
    0.14110180901816234481E-02
